<?xml version="1.0" encoding="UTF-8"?>

<!-- generated on 2024-10-15 20:54:35 by Eclipse SUMO GUI Version 1.14.1
<configuration xmlns:xsi="http://www.w3.org/2001/XMLSchema-instance" xsi:noNamespaceSchemaLocation="http://sumo.dlr.de/xsd/sumoConfiguration.xsd">

    <input>
        <net-file value="E:\桌面\第三篇github上传\scenario_3-2\osm.net.xml"/>
        <route-files value="E:\桌面\第三篇github上传\scenario_3-2\osm.passenger1.trips.xml"/>
        <additional-files value="E:\桌面\第三篇github上传\scenario_3-2\osm.poly.xml"/>
    </input>

    <output>
        <tripinfo-output value="E:\桌面\第三篇github上传\scenario_3-2\sample.tripinfo.xml"/>
    </output>

    <processing>
        <ignore-route-errors value="true"/>
    </processing>

    <routing>
        <device.rerouting.adaptation-steps value="18"/>
        <device.rerouting.adaptation-interval value="10"/>
    </routing>

    <report>
        <verbose value="true"/>
        <duration-log.statistics value="true"/>
        <no-step-log value="true"/>
    </report>

    <gui_only>
        <gui-settings-file value="E:\桌面\第三篇github上传\scenario_3-2\osm.view.xml"/>
        <quit-on-end value="true"/>
        <start value="true"/>
    </gui_only>

</configuration>
-->

<tripinfos xmlns:xsi="http://www.w3.org/2001/XMLSchema-instance" xsi:noNamespaceSchemaLocation="http://sumo.dlr.de/xsd/tripinfo_file.xsd">
    <tripinfo id="veh3" depart="6.00" departLane="-537470134#1_0" departPos="5.10" departSpeed="14.03" departDelay="0.00" arrival="78.00" arrivalLane="507449297_0" arrivalPos="108.01" arrivalSpeed="16.25" duration="72.00" routeLength="585.63" waitingTime="8.00" waitingCount="1" stopTime="0.00" timeLoss="32.54" rerouteNo="1" devices="tripinfo_veh3 routing_veh3" vType="veh_passenger" speedFactor="1.01" vaporized=""/>
    <tripinfo id="veh4" depart="8.00" departLane="537300953_0" departPos="5.10" departSpeed="0.00" departDelay="0.00" arrival="80.00" arrivalLane="507449297_1" arrivalPos="108.01" arrivalSpeed="8.89" duration="72.00" routeLength="544.40" waitingTime="28.00" waitingCount="1" stopTime="0.00" timeLoss="47.65" rerouteNo="1" devices="tripinfo_veh4 routing_veh4" vType="veh_passenger" speedFactor="1.08" vaporized=""/>
    <tripinfo id="veh0" depart="0.00" departLane="554658425_0" departPos="5.10" departSpeed="0.00" departDelay="0.00" arrival="97.00" arrivalLane="537470137#0_0" arrivalPos="38.93" arrivalSpeed="13.96" duration="97.00" routeLength="625.10" waitingTime="39.00" waitingCount="1" stopTime="0.00" timeLoss="62.25" rerouteNo="1" devices="tripinfo_veh0 routing_veh0" vType="veh_passenger" speedFactor="1.06" vaporized=""/>
    <tripinfo id="veh7" depart="14.00" departLane="37395951#0_0" departPos="5.10" departSpeed="20.83" departDelay="0.00" arrival="100.00" arrivalLane="-537470132#2_0" arrivalPos="69.97" arrivalSpeed="7.74" duration="86.00" routeLength="627.94" waitingTime="33.00" waitingCount="2" stopTime="0.00" timeLoss="60.80" rerouteNo="1" devices="tripinfo_veh7 routing_veh7" vType="veh_passenger" speedFactor="1.05" vaporized=""/>
    <tripinfo id="veh14" depart="28.00" departLane="-195718957#3_1" departPos="5.10" departSpeed="28.51" departDelay="0.00" arrival="102.00" arrivalLane="195718957#2_1" arrivalPos="116.28" arrivalSpeed="20.38" duration="74.00" routeLength="748.42" waitingTime="28.00" waitingCount="1" stopTime="0.00" timeLoss="46.31" rerouteNo="1" devices="tripinfo_veh14 routing_veh14" vType="veh_passenger" speedFactor="1.03" vaporized=""/>
    <tripinfo id="veh28" depart="56.00" departLane="-195718957#3_1" departPos="5.10" departSpeed="27.09" departDelay="0.00" arrival="103.00" arrivalLane="-537300949#2_0" arrivalPos="90.31" arrivalSpeed="13.15" duration="47.00" routeLength="763.29" waitingTime="0.00" waitingCount="0" stopTime="0.00" timeLoss="8.42" rerouteNo="1" devices="tripinfo_veh28 routing_veh28" vType="veh_passenger" speedFactor="0.97" vaporized=""/>
    <tripinfo id="veh20" depart="40.00" departLane="195718957#2_0" departPos="5.10" departSpeed="0.00" departDelay="0.00" arrival="105.00" arrivalLane="195718957#3_0" arrivalPos="499.05" arrivalSpeed="23.16" duration="65.00" routeLength="627.55" waitingTime="24.00" waitingCount="1" stopTime="0.00" timeLoss="38.95" rerouteNo="0" devices="tripinfo_veh20 routing_veh20" vType="veh_passenger" speedFactor="0.88" vaporized=""/>
    <tripinfo id="veh37" depart="74.00" departLane="554658431_0" departPos="5.10" departSpeed="0.00" departDelay="0.00" arrival="106.00" arrivalLane="-537470132#0_0" arrivalPos="81.93" arrivalSpeed="15.22" duration="32.00" routeLength="367.51" waitingTime="0.00" waitingCount="0" stopTime="0.00" timeLoss="11.98" rerouteNo="1" devices="tripinfo_veh37 routing_veh37" vType="veh_passenger" speedFactor="1.13" vaporized=""/>
    <tripinfo id="veh40" depart="80.00" departLane="507449293_0" departPos="5.10" departSpeed="32.74" departDelay="0.00" arrival="106.00" arrivalLane="554663655_0" arrivalPos="201.26" arrivalSpeed="32.29" duration="26.00" routeLength="624.31" waitingTime="0.00" waitingCount="0" stopTime="0.00" timeLoss="6.92" rerouteNo="1" devices="tripinfo_veh40 routing_veh40" vType="veh_passenger" speedFactor="1.18" vaporized=""/>
    <tripinfo id="veh34" depart="68.00" departLane="-195718957#2_1" departPos="5.10" departSpeed="0.00" departDelay="0.00" arrival="120.00" arrivalLane="772657041_0" arrivalPos="81.18" arrivalSpeed="6.05" duration="52.00" routeLength="299.96" waitingTime="21.00" waitingCount="1" stopTime="0.00" timeLoss="39.08" rerouteNo="1" devices="tripinfo_veh34 routing_veh34" vType="veh_passenger" speedFactor="0.87" vaporized=""/>
    <tripinfo id="veh2" depart="4.00" departLane="37395951#2_2" departPos="5.10" departSpeed="0.00" departDelay="0.00" arrival="129.00" arrivalLane="-480013008#0_0" arrivalPos="39.67" arrivalSpeed="5.41" duration="125.00" routeLength="617.21" waitingTime="66.00" waitingCount="2" stopTime="0.00" timeLoss="88.97" rerouteNo="1" devices="tripinfo_veh2 routing_veh2" vType="veh_passenger" speedFactor="0.94" vaporized=""/>
    <tripinfo id="veh8" depart="16.00" departLane="-195718957#3_1" departPos="5.10" departSpeed="24.61" departDelay="0.00" arrival="132.00" arrivalLane="-537300953_0" arrivalPos="29.33" arrivalSpeed="11.31" duration="116.00" routeLength="707.88" waitingTime="69.00" waitingCount="2" stopTime="0.00" timeLoss="81.49" rerouteNo="1" devices="tripinfo_veh8 routing_veh8" vType="veh_passenger" speedFactor="0.89" vaporized=""/>
    <tripinfo id="veh35" depart="70.00" departLane="-195718957#3_0" departPos="5.10" departSpeed="25.48" departDelay="0.00" arrival="135.00" arrivalLane="507449296#1_2" arrivalPos="34.79" arrivalSpeed="24.36" duration="65.00" routeLength="1002.14" waitingTime="11.00" waitingCount="1" stopTime="0.00" timeLoss="23.81" rerouteNo="1" devices="tripinfo_veh35 routing_veh35" vType="veh_passenger" speedFactor="0.92" vaporized=""/>
    <tripinfo id="veh33" depart="66.00" departLane="554658426_0" departPos="5.10" departSpeed="0.00" departDelay="0.00" arrival="136.00" arrivalLane="507449297_0" arrivalPos="108.01" arrivalSpeed="22.37" duration="70.00" routeLength="448.69" waitingTime="33.00" waitingCount="1" stopTime="0.00" timeLoss="48.71" rerouteNo="1" devices="tripinfo_veh33 routing_veh33" vType="veh_passenger" speedFactor="0.83" vaporized=""/>
    <tripinfo id="veh38" depart="76.00" departLane="480013005_1" departPos="5.10" departSpeed="0.00" departDelay="0.00" arrival="137.00" arrivalLane="507449297_1" arrivalPos="108.01" arrivalSpeed="24.73" duration="61.00" routeLength="505.81" waitingTime="21.00" waitingCount="1" stopTime="0.00" timeLoss="39.75" rerouteNo="1" devices="tripinfo_veh38 routing_veh38" vType="veh_passenger" speedFactor="0.93" vaporized=""/>
    <tripinfo id="veh29" depart="58.00" departLane="-195718957#3_1" departPos="5.10" departSpeed="24.71" departDelay="0.00" arrival="140.00" arrivalLane="480013005_1" arrivalPos="32.51" arrivalSpeed="5.85" duration="82.00" routeLength="977.05" waitingTime="5.00" waitingCount="1" stopTime="0.00" timeLoss="26.82" rerouteNo="1" devices="tripinfo_veh29 routing_veh29" vType="veh_passenger" speedFactor="0.89" vaporized=""/>
    <tripinfo id="veh36" depart="72.00" departLane="-195718957#3_1" departPos="5.10" departSpeed="26.36" departDelay="0.00" arrival="141.00" arrivalLane="554663655_0" arrivalPos="201.26" arrivalSpeed="26.35" duration="69.00" routeLength="1165.07" waitingTime="6.00" waitingCount="1" stopTime="0.00" timeLoss="22.28" rerouteNo="1" devices="tripinfo_veh36 routing_veh36" vType="veh_passenger" speedFactor="0.95" vaporized=""/>
    <tripinfo id="veh22" depart="44.00" departLane="537452098_0" departPos="5.10" departSpeed="0.00" departDelay="0.00" arrival="159.00" arrivalLane="480013008#0_0" arrivalPos="39.67" arrivalSpeed="5.61" duration="115.00" routeLength="797.79" waitingTime="34.00" waitingCount="3" stopTime="0.00" timeLoss="66.51" rerouteNo="1" devices="tripinfo_veh22 routing_veh22" vType="veh_passenger" speedFactor="0.94" vaporized=""/>
    <tripinfo id="veh16" depart="32.00" departLane="37395951#0_0" departPos="5.10" departSpeed="19.13" departDelay="0.00" arrival="162.00" arrivalLane="195718957#1_1" arrivalPos="30.61" arrivalSpeed="14.34" duration="130.00" routeLength="408.91" waitingTime="81.00" waitingCount="4" stopTime="0.00" timeLoss="116.75" rerouteNo="1" devices="tripinfo_veh16 routing_veh16" vType="veh_passenger" speedFactor="1.12" vaporized=""/>
    <tripinfo id="veh23" depart="46.00" departLane="656614697_0" departPos="5.10" departSpeed="0.00" departDelay="0.00" arrival="172.00" arrivalLane="507449295_0" arrivalPos="120.75" arrivalSpeed="24.66" duration="126.00" routeLength="721.69" waitingTime="53.00" waitingCount="2" stopTime="0.00" timeLoss="83.00" rerouteNo="1" devices="tripinfo_veh23 routing_veh23" vType="veh_passenger" speedFactor="1.16" vaporized=""/>
    <tripinfo id="veh18" depart="36.00" departLane="507449293_1" departPos="5.10" departSpeed="25.75" departDelay="0.00" arrival="175.00" arrivalLane="537470137#1_0" arrivalPos="108.90" arrivalSpeed="12.00" duration="139.00" routeLength="1052.47" waitingTime="51.00" waitingCount="2" stopTime="0.00" timeLoss="79.40" rerouteNo="1" devices="tripinfo_veh18 routing_veh18" vType="veh_passenger" speedFactor="0.93" vaporized=""/>
    <tripinfo id="veh56" depart="112.00" departLane="507449293_0" departPos="5.10" departSpeed="30.33" departDelay="0.00" arrival="175.00" arrivalLane="554663655_0" arrivalPos="201.26" arrivalSpeed="30.13" duration="63.00" routeLength="624.31" waitingTime="29.00" waitingCount="1" stopTime="0.00" timeLoss="41.63" rerouteNo="1" devices="tripinfo_veh56 routing_veh56" vType="veh_passenger" speedFactor="1.09" vaporized=""/>
    <tripinfo id="veh74" depart="148.00" departLane="554658425_0" departPos="5.10" departSpeed="0.00" departDelay="0.00" arrival="175.00" arrivalLane="507449297_1" arrivalPos="108.01" arrivalSpeed="13.03" duration="27.00" routeLength="452.07" waitingTime="0.00" waitingCount="0" stopTime="0.00" timeLoss="8.47" rerouteNo="1" devices="tripinfo_veh74 routing_veh74" vType="veh_passenger" speedFactor="0.90" vaporized=""/>
    <tripinfo id="veh49" depart="98.00" departLane="37395951#2_2" departPos="5.10" departSpeed="0.00" departDelay="0.00" arrival="177.00" arrivalLane="507449295_0" arrivalPos="120.75" arrivalSpeed="25.97" duration="79.00" routeLength="543.18" waitingTime="29.00" waitingCount="3" stopTime="0.00" timeLoss="60.45" rerouteNo="1" devices="tripinfo_veh49 routing_veh49" vType="veh_passenger" speedFactor="1.18" vaporized=""/>
    <tripinfo id="veh65" depart="130.00" departLane="-195718957#3_1" departPos="5.10" departSpeed="23.62" departDelay="0.00" arrival="179.00" arrivalLane="195718957#1_1" arrivalPos="30.61" arrivalSpeed="10.68" duration="49.00" routeLength="707.77" waitingTime="0.00" waitingCount="0" stopTime="0.00" timeLoss="18.15" rerouteNo="1" devices="tripinfo_veh65 routing_veh65" vType="veh_passenger" speedFactor="0.85" vaporized=""/>
    <tripinfo id="veh55" depart="110.00" departLane="-537300951#2_0" departPos="5.10" departSpeed="0.00" departDelay="0.00" arrival="182.00" arrivalLane="195718957#3_0" arrivalPos="499.05" arrivalSpeed="26.16" duration="72.00" routeLength="737.05" waitingTime="19.00" waitingCount="1" stopTime="0.00" timeLoss="38.62" rerouteNo="1" devices="tripinfo_veh55 routing_veh55" vType="veh_passenger" speedFactor="0.96" vaporized=""/>
    <tripinfo id="veh51" depart="102.00" departLane="37395951#2_0" departPos="5.10" departSpeed="0.00" departDelay="0.00" arrival="186.00" arrivalLane="195718957#3_0" arrivalPos="499.05" arrivalSpeed="29.75" duration="84.00" routeLength="881.09" waitingTime="31.00" waitingCount="1" stopTime="0.00" timeLoss="55.18" rerouteNo="1" devices="tripinfo_veh51 routing_veh51" vType="veh_passenger" speedFactor="1.10" vaporized=""/>
    <tripinfo id="veh25" depart="50.00" departLane="507449293_1" departPos="5.10" departSpeed="28.06" departDelay="0.00" arrival="189.00" arrivalLane="195718957#3_0" arrivalPos="499.05" arrivalSpeed="26.85" duration="139.00" routeLength="1207.47" waitingTime="61.00" waitingCount="3" stopTime="0.00" timeLoss="95.04" rerouteNo="1" devices="tripinfo_veh25 routing_veh25" vType="veh_passenger" speedFactor="1.01" vaporized=""/>
    <tripinfo id="veh10" depart="20.00" departLane="59150733#1_0" departPos="5.10" departSpeed="0.00" departDelay="0.00" arrival="192.00" arrivalLane="554663655_0" arrivalPos="201.26" arrivalSpeed="25.76" duration="172.00" routeLength="1158.83" waitingTime="74.00" waitingCount="2" stopTime="0.00" timeLoss="108.65" rerouteNo="1" devices="tripinfo_veh10 routing_veh10" vType="veh_passenger" speedFactor="0.94" vaporized=""/>
    <tripinfo id="veh13" depart="26.00" departLane="-537470134#1_0" departPos="5.10" departSpeed="15.15" departDelay="0.00" arrival="195.00" arrivalLane="195718957#3_0" arrivalPos="499.05" arrivalSpeed="29.07" duration="169.00" routeLength="1802.82" waitingTime="31.00" waitingCount="2" stopTime="0.00" timeLoss="89.77" rerouteNo="1" devices="tripinfo_veh13 routing_veh13" vType="veh_passenger" speedFactor="1.09" vaporized=""/>
    <tripinfo id="veh15" depart="30.00" departLane="-480013008#0_0" departPos="5.10" departSpeed="0.00" departDelay="0.00" arrival="198.00" arrivalLane="195718957#3_1" arrivalPos="499.05" arrivalSpeed="28.47" duration="168.00" routeLength="1562.20" waitingTime="48.00" waitingCount="4" stopTime="0.00" timeLoss="103.31" rerouteNo="1" devices="tripinfo_veh15 routing_veh15" vType="veh_passenger" speedFactor="1.05" vaporized=""/>
    <tripinfo id="veh21" depart="42.00" departLane="-537470134#1_0" departPos="5.10" departSpeed="13.08" departDelay="0.00" arrival="198.00" arrivalLane="772657041_2" arrivalPos="81.18" arrivalSpeed="6.43" duration="156.00" routeLength="1208.65" waitingTime="52.00" waitingCount="2" stopTime="0.00" timeLoss="87.93" rerouteNo="1" devices="tripinfo_veh21 routing_veh21" vType="veh_passenger" speedFactor="0.94" vaporized=""/>
    <tripinfo id="veh17" depart="34.00" departLane="775219811_1" departPos="5.10" departSpeed="0.00" departDelay="0.00" arrival="199.00" arrivalLane="537470134#0_0" arrivalPos="133.51" arrivalSpeed="13.04" duration="165.00" routeLength="1040.08" waitingTime="53.00" waitingCount="3" stopTime="0.00" timeLoss="98.90" rerouteNo="1" devices="tripinfo_veh17 routing_veh17" vType="veh_passenger" speedFactor="0.99" vaporized=""/>
    <tripinfo id="veh6" depart="12.00" departLane="59150733#1_0" departPos="5.10" departSpeed="0.00" departDelay="0.00" arrival="202.00" arrivalLane="554658425_0" arrivalPos="26.84" arrivalSpeed="22.28" duration="190.00" routeLength="1382.93" waitingTime="47.00" waitingCount="3" stopTime="0.00" timeLoss="92.06" rerouteNo="1" devices="tripinfo_veh6 routing_veh6" vType="veh_passenger" speedFactor="0.83" vaporized=""/>
    <tripinfo id="veh43" depart="117.00" departLane="471664440#0_1" departPos="5.10" departSpeed="0.00" departDelay="31.00" arrival="212.00" arrivalLane="507449297_1" arrivalPos="108.01" arrivalSpeed="27.37" duration="95.00" routeLength="476.03" waitingTime="49.00" waitingCount="3" stopTime="0.00" timeLoss="74.59" rerouteNo="1" devices="tripinfo_veh43 routing_veh43" vType="veh_passenger" speedFactor="1.01" vaporized=""/>
    <tripinfo id="veh57" depart="114.00" departLane="-195718957#3_1" departPos="5.10" departSpeed="28.83" departDelay="0.00" arrival="217.00" arrivalLane="537300951#0_0" arrivalPos="10.50" arrivalSpeed="6.93" duration="103.00" routeLength="754.39" waitingTime="50.00" waitingCount="2" stopTime="0.00" timeLoss="71.46" rerouteNo="1" devices="tripinfo_veh57 routing_veh57" vType="veh_passenger" speedFactor="1.04" vaporized=""/>
    <tripinfo id="veh5" depart="10.00" departLane="-537470134#1_0" departPos="5.10" departSpeed="14.31" departDelay="0.00" arrival="218.00" arrivalLane="537300951#1_0" arrivalPos="31.38" arrivalSpeed="13.56" duration="208.00" routeLength="1194.24" waitingTime="81.00" waitingCount="4" stopTime="0.00" timeLoss="140.53" rerouteNo="1" devices="tripinfo_veh5 routing_veh5" vType="veh_passenger" speedFactor="1.03" vaporized=""/>
    <tripinfo id="veh84" depart="168.00" departLane="-195718957#2_0" departPos="5.10" departSpeed="0.00" departDelay="0.00" arrival="218.00" arrivalLane="554663655_1" arrivalPos="201.26" arrivalSpeed="26.70" duration="50.00" routeLength="648.78" waitingTime="4.00" waitingCount="1" stopTime="0.00" timeLoss="23.90" rerouteNo="1" devices="tripinfo_veh84 routing_veh84" vType="veh_passenger" speedFactor="0.97" vaporized=""/>
    <tripinfo id="veh69" depart="138.00" departLane="537300951#2_0" departPos="5.10" departSpeed="0.00" departDelay="0.00" arrival="220.00" arrivalLane="195718957#3_0" arrivalPos="499.05" arrivalSpeed="29.88" duration="82.00" routeLength="727.21" waitingTime="33.00" waitingCount="1" stopTime="0.00" timeLoss="48.65" rerouteNo="1" devices="tripinfo_veh69 routing_veh69" vType="veh_passenger" speedFactor="1.10" vaporized=""/>
    <tripinfo id="veh64" depart="128.00" departLane="-195718957#3_0" departPos="5.10" departSpeed="24.36" departDelay="0.00" arrival="221.00" arrivalLane="507449295_0" arrivalPos="120.75" arrivalSpeed="19.42" duration="93.00" routeLength="1126.02" waitingTime="17.00" waitingCount="2" stopTime="0.00" timeLoss="43.08" rerouteNo="1" devices="tripinfo_veh64 routing_veh64" vType="veh_passenger" speedFactor="0.88" vaporized=""/>
    <tripinfo id="veh46" depart="92.00" departLane="-195718957#3_0" departPos="5.10" departSpeed="28.33" departDelay="0.00" arrival="222.00" arrivalLane="537470132#2_0" arrivalPos="69.97" arrivalSpeed="13.60" duration="130.00" routeLength="1106.24" waitingTime="62.00" waitingCount="2" stopTime="0.00" timeLoss="83.45" rerouteNo="1" devices="tripinfo_veh46 routing_veh46" vType="veh_passenger" speedFactor="1.02" vaporized=""/>
    <tripinfo id="veh73" depart="146.00" departLane="537300951#2_0" departPos="5.10" departSpeed="0.00" departDelay="0.00" arrival="222.00" arrivalLane="195718957#3_0" arrivalPos="499.05" arrivalSpeed="27.21" duration="76.00" routeLength="727.21" waitingTime="25.00" waitingCount="1" stopTime="0.00" timeLoss="40.45" rerouteNo="1" devices="tripinfo_veh73 routing_veh73" vType="veh_passenger" speedFactor="1.00" vaporized=""/>
    <tripinfo id="veh12" depart="24.00" departLane="537470132#1_0" departPos="5.10" departSpeed="0.00" departDelay="0.00" arrival="228.00" arrivalLane="-537300949#2_0" arrivalPos="90.31" arrivalSpeed="11.34" duration="204.00" routeLength="1073.07" waitingTime="80.00" waitingCount="4" stopTime="0.00" timeLoss="138.11" rerouteNo="1" devices="tripinfo_veh12 routing_veh12" vType="veh_passenger" speedFactor="0.86" vaporized=""/>
    <tripinfo id="veh41" depart="82.00" departLane="-537470132#2_0" departPos="5.10" departSpeed="0.00" departDelay="0.00" arrival="230.00" arrivalLane="37395951#2_0" arrivalPos="75.33" arrivalSpeed="20.43" duration="148.00" routeLength="1121.36" waitingTime="41.00" waitingCount="3" stopTime="0.00" timeLoss="95.32" rerouteNo="1" devices="tripinfo_veh41 routing_veh41" vType="veh_passenger" speedFactor="1.15" vaporized=""/>
    <tripinfo id="veh48" depart="96.00" departLane="-195718957#3_0" departPos="5.10" departSpeed="27.04" departDelay="0.00" arrival="239.00" arrivalLane="495352120_0" arrivalPos="3.05" arrivalSpeed="7.40" duration="143.00" routeLength="1257.30" waitingTime="54.00" waitingCount="2" stopTime="0.00" timeLoss="81.67" rerouteNo="1" devices="tripinfo_veh48 routing_veh48" vType="veh_passenger" speedFactor="0.97" vaporized=""/>
    <tripinfo id="veh45" depart="90.00" departLane="-537470134#1_0" departPos="5.10" departSpeed="13.82" departDelay="0.00" arrival="243.00" arrivalLane="195718957#1_0" arrivalPos="30.61" arrivalSpeed="7.60" duration="153.00" routeLength="1155.76" waitingTime="33.00" waitingCount="3" stopTime="0.00" timeLoss="89.33" rerouteNo="1" devices="tripinfo_veh45 routing_veh45" vType="veh_passenger" speedFactor="0.99" vaporized=""/>
    <tripinfo id="veh85" depart="170.00" departLane="37395951#0_0" departPos="5.10" departSpeed="20.83" departDelay="0.00" arrival="247.00" arrivalLane="772657041_2" arrivalPos="81.18" arrivalSpeed="26.51" duration="77.00" routeLength="461.74" waitingTime="39.00" waitingCount="2" stopTime="0.00" timeLoss="61.07" rerouteNo="1" devices="tripinfo_veh85 routing_veh85" vType="veh_passenger" speedFactor="1.08" vaporized=""/>
    <tripinfo id="veh54" depart="108.00" departLane="-59150732#1_0" departPos="5.10" departSpeed="0.00" departDelay="0.00" arrival="252.00" arrivalLane="554663655_0" arrivalPos="201.26" arrivalSpeed="27.79" duration="144.00" routeLength="1169.56" waitingTime="43.00" waitingCount="2" stopTime="0.00" timeLoss="87.06" rerouteNo="1" devices="tripinfo_veh54 routing_veh54" vType="veh_passenger" speedFactor="1.03" vaporized=""/>
    <tripinfo id="veh44" depart="88.00" departLane="37395951#0_0" departPos="5.10" departSpeed="20.83" departDelay="0.00" arrival="260.00" arrivalLane="537300951#1_0" arrivalPos="31.38" arrivalSpeed="15.72" duration="172.00" routeLength="416.54" waitingTime="127.00" waitingCount="3" stopTime="0.00" timeLoss="154.42" rerouteNo="1" devices="tripinfo_veh44 routing_veh44" vType="veh_passenger" speedFactor="1.17" vaporized=""/>
    <tripinfo id="veh114" depart="228.00" departLane="537300949#0_0" departPos="5.10" departSpeed="0.00" departDelay="0.00" arrival="260.00" arrivalLane="772657041_2" arrivalPos="81.18" arrivalSpeed="27.03" duration="32.00" routeLength="442.66" waitingTime="0.00" waitingCount="0" stopTime="0.00" timeLoss="9.73" rerouteNo="1" devices="tripinfo_veh114 routing_veh114" vType="veh_passenger" speedFactor="1.02" vaporized=""/>
    <tripinfo id="veh59" depart="118.00" departLane="-195718957#3_0" departPos="5.10" departSpeed="28.99" departDelay="0.00" arrival="263.00" arrivalLane="-59150732#1_0" arrivalPos="99.18" arrivalSpeed="14.14" duration="145.00" routeLength="1404.73" waitingTime="37.00" waitingCount="3" stopTime="0.00" timeLoss="77.39" rerouteNo="1" devices="tripinfo_veh59 routing_veh59" vType="veh_passenger" speedFactor="1.04" vaporized=""/>
    <tripinfo id="veh72" depart="144.00" departLane="37395951#2_0" departPos="5.10" departSpeed="0.00" departDelay="0.00" arrival="266.00" arrivalLane="195718957#3_0" arrivalPos="499.05" arrivalSpeed="27.06" duration="122.00" routeLength="881.09" waitingTime="64.00" waitingCount="2" stopTime="0.00" timeLoss="89.54" rerouteNo="1" devices="tripinfo_veh72 routing_veh72" vType="veh_passenger" speedFactor="1.00" vaporized=""/>
    <tripinfo id="veh93" depart="188.00" departLane="772657043_1" departPos="5.10" departSpeed="0.00" departDelay="2.00" arrival="269.00" arrivalLane="195718957#3_1" arrivalPos="499.05" arrivalSpeed="24.09" duration="81.00" routeLength="777.21" waitingTime="35.00" waitingCount="2" stopTime="0.00" timeLoss="49.99" rerouteNo="1" devices="tripinfo_veh93 routing_veh93" vType="veh_passenger" speedFactor="0.91" vaporized=""/>
    <tripinfo id="veh24" depart="48.00" departLane="-59150732#1_0" departPos="5.10" departSpeed="0.00" departDelay="0.00" arrival="271.00" arrivalLane="195718957#3_1" arrivalPos="499.05" arrivalSpeed="27.06" duration="223.00" routeLength="1752.72" waitingTime="86.00" waitingCount="4" stopTime="0.00" timeLoss="143.05" rerouteNo="1" devices="tripinfo_veh24 routing_veh24" vType="veh_passenger" speedFactor="1.02" vaporized=""/>
    <tripinfo id="veh91" depart="182.00" departLane="772657041_0" departPos="5.10" departSpeed="0.00" departDelay="0.00" arrival="271.00" arrivalLane="-537470132#0_0" arrivalPos="81.93" arrivalSpeed="12.31" duration="89.00" routeLength="458.83" waitingTime="28.00" waitingCount="3" stopTime="0.00" timeLoss="59.48" rerouteNo="1" devices="tripinfo_veh91 routing_veh91" vType="veh_passenger" speedFactor="0.94" vaporized=""/>
    <tripinfo id="veh90" depart="180.00" departLane="772657044_1" departPos="5.10" departSpeed="0.00" departDelay="0.00" arrival="272.00" arrivalLane="195718957#3_0" arrivalPos="499.05" arrivalSpeed="26.94" duration="92.00" routeLength="1033.82" waitingTime="17.00" waitingCount="1" stopTime="0.00" timeLoss="51.73" rerouteNo="1" devices="tripinfo_veh90 routing_veh90" vType="veh_passenger" speedFactor="0.99" vaporized=""/>
    <tripinfo id="veh67" depart="134.00" departLane="-537300950#1_0" departPos="5.10" departSpeed="0.00" departDelay="0.00" arrival="273.00" arrivalLane="-537470132#0_0" arrivalPos="81.93" arrivalSpeed="15.91" duration="139.00" routeLength="701.89" waitingTime="44.00" waitingCount="5" stopTime="0.00" timeLoss="100.39" rerouteNo="1" devices="tripinfo_veh67 routing_veh67" vType="veh_passenger" speedFactor="1.17" vaporized=""/>
    <tripinfo id="veh102" depart="204.00" departLane="-195718957#1_1" departPos="5.10" departSpeed="0.00" departDelay="0.00" arrival="273.00" arrivalLane="195718957#3_1" arrivalPos="499.05" arrivalSpeed="28.66" duration="69.00" routeLength="707.85" waitingTime="28.00" waitingCount="2" stopTime="0.00" timeLoss="43.72" rerouteNo="1" devices="tripinfo_veh102 routing_veh102" vType="veh_passenger" speedFactor="1.06" vaporized=""/>
    <tripinfo id="veh77" depart="154.00" departLane="-537300951#1_0" departPos="5.10" departSpeed="0.00" departDelay="0.00" arrival="275.00" arrivalLane="-537470132#0_0" arrivalPos="81.93" arrivalSpeed="14.91" duration="121.00" routeLength="591.75" waitingTime="51.00" waitingCount="3" stopTime="0.00" timeLoss="89.25" rerouteNo="1" devices="tripinfo_veh77 routing_veh77" vType="veh_passenger" speedFactor="1.14" vaporized=""/>
    <tripinfo id="veh108" depart="216.00" departLane="37395951#2_2" departPos="5.10" departSpeed="0.00" departDelay="0.00" arrival="282.00" arrivalLane="537470132#1_0" arrivalPos="59.31" arrivalSpeed="13.03" duration="66.00" routeLength="588.10" waitingTime="0.00" waitingCount="0" stopTime="0.00" timeLoss="34.94" rerouteNo="1" devices="tripinfo_veh108 routing_veh108" vType="veh_passenger" speedFactor="0.98" vaporized=""/>
    <tripinfo id="veh122" depart="244.00" departLane="37395951#2_2" departPos="5.10" departSpeed="0.00" departDelay="0.00" arrival="282.00" arrivalLane="507449297_0" arrivalPos="108.01" arrivalSpeed="18.27" duration="38.00" routeLength="530.45" waitingTime="0.00" waitingCount="0" stopTime="0.00" timeLoss="18.82" rerouteNo="1" devices="tripinfo_veh122 routing_veh122" vType="veh_passenger" speedFactor="1.01" vaporized=""/>
    <tripinfo id="veh101" depart="202.00" departLane="195718957#1_1" departPos="5.10" departSpeed="0.00" departDelay="0.00" arrival="292.00" arrivalLane="507449297_0" arrivalPos="108.01" arrivalSpeed="14.40" duration="90.00" routeLength="501.59" waitingTime="42.00" waitingCount="2" stopTime="0.00" timeLoss="68.02" rerouteNo="1" devices="tripinfo_veh101 routing_veh101" vType="veh_passenger" speedFactor="0.94" vaporized=""/>
    <tripinfo id="veh103" depart="206.00" departLane="537452098_0" departPos="5.10" departSpeed="0.00" departDelay="0.00" arrival="293.00" arrivalLane="507449295_0" arrivalPos="120.75" arrivalSpeed="20.92" duration="87.00" routeLength="768.10" waitingTime="23.00" waitingCount="1" stopTime="0.00" timeLoss="47.27" rerouteNo="1" devices="tripinfo_veh103 routing_veh103" vType="veh_passenger" speedFactor="0.96" vaporized=""/>
    <tripinfo id="veh95" depart="190.00" departLane="537300950#0_0" departPos="5.10" departSpeed="0.00" departDelay="0.00" arrival="294.00" arrivalLane="507449297_1" arrivalPos="108.01" arrivalSpeed="16.86" duration="104.00" routeLength="504.64" waitingTime="52.00" waitingCount="2" stopTime="0.00" timeLoss="80.32" rerouteNo="1" devices="tripinfo_veh95 routing_veh95" vType="veh_passenger" speedFactor="1.04" vaporized=""/>
    <tripinfo id="veh104" depart="208.00" departLane="-195718957#3_0" departPos="5.10" departSpeed="27.36" departDelay="0.00" arrival="294.00" arrivalLane="507449297_0" arrivalPos="108.01" arrivalSpeed="20.26" duration="86.00" routeLength="1108.99" waitingTime="14.00" waitingCount="2" stopTime="0.00" timeLoss="43.53" rerouteNo="1" devices="tripinfo_veh104 routing_veh104" vType="veh_passenger" speedFactor="0.98" vaporized=""/>
    <tripinfo id="veh60" depart="120.00" departLane="537300949#0_0" departPos="5.10" departSpeed="0.00" departDelay="0.00" arrival="304.00" arrivalLane="537470134#1_0" arrivalPos="55.78" arrivalSpeed="15.03" duration="184.00" routeLength="975.20" waitingTime="93.00" waitingCount="3" stopTime="0.00" timeLoss="128.48" rerouteNo="1" devices="tripinfo_veh60 routing_veh60" vType="veh_passenger" speedFactor="1.09" vaporized=""/>
    <tripinfo id="veh52" depart="104.00" departLane="507449293_1" departPos="5.10" departSpeed="25.02" departDelay="0.00" arrival="305.00" arrivalLane="-537300949#2_0" arrivalPos="90.31" arrivalSpeed="11.22" duration="201.00" routeLength="772.22" waitingTime="127.00" waitingCount="3" stopTime="0.00" timeLoss="158.11" rerouteNo="1" devices="tripinfo_veh52 routing_veh52" vType="veh_passenger" speedFactor="0.90" vaporized=""/>