<?xml version="1.0" encoding="UTF-8"?>

<!-- generated on 2024-10-15 20:55:39 by Eclipse SUMO GUI Version 1.14.1
<configuration xmlns:xsi="http://www.w3.org/2001/XMLSchema-instance" xsi:noNamespaceSchemaLocation="http://sumo.dlr.de/xsd/sumoConfiguration.xsd">

    <input>
        <net-file value="E:\桌面\第三篇github上传\scenario_3-3\most.net.xml"/>
        <route-files value="E:\桌面\第三篇github上传\scenario_3-3\most_1.rou.xml"/>
    </input>

    <output>
        <tripinfo-output value="E:\桌面\第三篇github上传\scenario_3-3\sample.tripinfo.xml"/>
    </output>

    <time>
        <begin value="0"/>
        <end value="3600"/>
    </time>

    <gui_only>
        <gui-settings-file value="E:\桌面\第三篇github上传\scenario_3-3\sample.settings.xml"/>
        <quit-on-end value="true"/>
        <start value="true"/>
    </gui_only>

</configuration>
-->

<tripinfos xmlns:xsi="http://www.w3.org/2001/XMLSchema-instance" xsi:noNamespaceSchemaLocation="http://sumo.dlr.de/xsd/tripinfo_file.xsd">
    <tripinfo id="f_0_0.0" depart="0.00" departLane="-10114#1_1" departPos="5.10" departSpeed="0.00" departDelay="0.00" arrival="135.00" arrivalLane="-10079_1" arrivalPos="42.09" arrivalSpeed="14.61" duration="135.00" routeLength="1206.79" waitingTime="34.00" waitingCount="2" stopTime="0.00" timeLoss="59.38" rerouteNo="1" devices="tripinfo_f_0_0.0 routing_f_0_0.0" vType="car" speedFactor="1.06" vaporized=""/>
    <tripinfo id="f_0_0.1" depart="12.00" departLane="-10114#1_1" departPos="5.10" departSpeed="0.00" departDelay="0.92" arrival="138.00" arrivalLane="-10079_1" arrivalPos="42.09" arrivalSpeed="13.93" duration="126.00" routeLength="1206.79" waitingTime="23.00" waitingCount="2" stopTime="0.00" timeLoss="46.17" rerouteNo="1" devices="tripinfo_f_0_0.1 routing_f_0_0.1" vType="car" speedFactor="1.01" vaporized=""/>
    <tripinfo id="f_0_1.0" depart="0.00" departLane="10096#1_1" departPos="5.10" departSpeed="0.00" departDelay="0.00" arrival="177.00" arrivalLane="10063_1" arrivalPos="56.79" arrivalSpeed="11.33" duration="177.00" routeLength="843.38" waitingTime="97.00" waitingCount="3" stopTime="0.00" timeLoss="116.71" rerouteNo="1" devices="tripinfo_f_0_1.0 routing_f_0_1.0" vType="car" speedFactor="0.94" vaporized=""/>
    <tripinfo id="f_0_1.1" depart="12.00" departLane="10096#1_1" departPos="5.10" departSpeed="0.00" departDelay="0.92" arrival="179.00" arrivalLane="10063_1" arrivalPos="56.79" arrivalSpeed="13.03" duration="167.00" routeLength="843.38" waitingTime="86.00" waitingCount="3" stopTime="0.00" timeLoss="114.22" rerouteNo="1" devices="tripinfo_f_0_1.1 routing_f_0_1.1" vType="car" speedFactor="1.08" vaporized=""/>
    <tripinfo id="f_0_1.2" depart="23.00" departLane="10096#1_1" departPos="5.10" departSpeed="0.00" departDelay="0.85" arrival="183.00" arrivalLane="10063_1" arrivalPos="56.79" arrivalSpeed="11.23" duration="160.00" routeLength="843.38" waitingTime="73.00" waitingCount="3" stopTime="0.00" timeLoss="91.19" rerouteNo="1" devices="tripinfo_f_0_1.2 routing_f_0_1.2" vType="car" speedFactor="0.83" vaporized=""/>
    <tripinfo id="f_0_1.3" depart="34.00" departLane="10096#1_1" departPos="5.10" departSpeed="0.00" departDelay="0.77" arrival="184.00" arrivalLane="10063_1" arrivalPos="56.79" arrivalSpeed="11.97" duration="150.00" routeLength="843.38" waitingTime="64.00" waitingCount="3" stopTime="0.00" timeLoss="86.16" rerouteNo="1" devices="tripinfo_f_0_1.3 routing_f_0_1.3" vType="car" speedFactor="0.89" vaporized=""/>
    <tripinfo id="f_0_0.2" depart="23.00" departLane="-10114#1_1" departPos="5.10" departSpeed="0.00" departDelay="0.85" arrival="242.00" arrivalLane="-10079_1" arrivalPos="42.09" arrivalSpeed="12.95" duration="219.00" routeLength="1206.79" waitingTime="112.00" waitingCount="3" stopTime="0.00" timeLoss="141.16" rerouteNo="1" devices="tripinfo_f_0_0.2 routing_f_0_0.2" vType="car" speedFactor="1.03" vaporized=""/>
    <tripinfo id="f_0_0.3" depart="34.00" departLane="-10114#1_1" departPos="5.10" departSpeed="0.00" departDelay="0.77" arrival="244.00" arrivalLane="-10079_1" arrivalPos="42.09" arrivalSpeed="12.84" duration="210.00" routeLength="1206.79" waitingTime="104.00" waitingCount="3" stopTime="0.00" timeLoss="132.89" rerouteNo="1" devices="tripinfo_f_0_0.3 routing_f_0_0.3" vType="car" speedFactor="1.05" vaporized=""/>
    <tripinfo id="f_0_1.5" depart="56.00" departLane="10096#1_1" departPos="5.10" departSpeed="0.00" departDelay="0.62" arrival="288.00" arrivalLane="10063_1" arrivalPos="56.79" arrivalSpeed="12.15" duration="232.00" routeLength="843.38" waitingTime="145.00" waitingCount="5" stopTime="0.00" timeLoss="176.34" rerouteNo="1" devices="tripinfo_f_0_1.5 routing_f_0_1.5" vType="car" speedFactor="1.03" vaporized=""/>
    <tripinfo id="f_0_1.4" depart="45.00" departLane="10096#1_1" departPos="5.10" departSpeed="0.00" departDelay="0.69" arrival="292.00" arrivalLane="10063_1" arrivalPos="56.79" arrivalSpeed="11.43" duration="247.00" routeLength="843.38" waitingTime="146.00" waitingCount="6" stopTime="0.00" timeLoss="180.27" rerouteNo="1" devices="tripinfo_f_0_1.4 routing_f_0_1.4" vType="car" speedFactor="0.86" vaporized=""/>
    <tripinfo id="f_0_1.6" depart="67.00" departLane="10096#1_1" departPos="5.10" departSpeed="0.00" departDelay="0.54" arrival="294.00" arrivalLane="10063_1" arrivalPos="56.79" arrivalSpeed="14.68" duration="227.00" routeLength="843.38" waitingTime="122.00" waitingCount="9" stopTime="0.00" timeLoss="175.73" rerouteNo="1" devices="tripinfo_f_0_1.6 routing_f_0_1.6" vType="car" speedFactor="1.12" vaporized=""/>
    <tripinfo id="f_0_1.7" depart="78.00" departLane="10096#1_1" departPos="5.10" departSpeed="0.00" departDelay="0.46" arrival="295.00" arrivalLane="10063_1" arrivalPos="56.79" arrivalSpeed="11.60" duration="217.00" routeLength="843.38" waitingTime="112.00" waitingCount="6" stopTime="0.00" timeLoss="155.98" rerouteNo="1" devices="tripinfo_f_0_1.7 routing_f_0_1.7" vType="car" speedFactor="0.93" vaporized=""/>
    <tripinfo id="f_0_0.4" depart="45.00" departLane="-10114#1_1" departPos="5.10" departSpeed="0.00" departDelay="0.69" arrival="314.00" arrivalLane="-10079_1" arrivalPos="42.09" arrivalSpeed="11.61" duration="269.00" routeLength="1206.79" waitingTime="151.00" waitingCount="4" stopTime="0.00" timeLoss="183.33" rerouteNo="1" devices="tripinfo_f_0_0.4 routing_f_0_0.4" vType="car" speedFactor="0.94" vaporized=""/>
    <tripinfo id="f_0_0.6" depart="67.00" departLane="-10114#1_1" departPos="5.10" departSpeed="0.00" departDelay="0.54" arrival="316.00" arrivalLane="-10079_1" arrivalPos="42.09" arrivalSpeed="12.36" duration="249.00" routeLength="1206.79" waitingTime="131.00" waitingCount="4" stopTime="0.00" timeLoss="172.07" rerouteNo="1" devices="tripinfo_f_0_0.6 routing_f_0_0.6" vType="car" speedFactor="1.05" vaporized=""/>
    <tripinfo id="f_0_0.7" depart="78.00" departLane="-10114#1_1" departPos="5.10" departSpeed="0.00" departDelay="0.46" arrival="318.00" arrivalLane="-10079_1" arrivalPos="42.09" arrivalSpeed="13.65" duration="240.00" routeLength="1206.79" waitingTime="114.00" waitingCount="5" stopTime="0.00" timeLoss="158.81" rerouteNo="1" devices="tripinfo_f_0_0.7 routing_f_0_0.7" vType="car" speedFactor="0.99" vaporized=""/>
    <tripinfo id="f_0_0.5" depart="56.00" departLane="-10114#1_1" departPos="5.10" departSpeed="0.00" departDelay="0.62" arrival="321.00" arrivalLane="-10079_1" arrivalPos="42.09" arrivalSpeed="14.38" duration="265.00" routeLength="1206.79" waitingTime="141.00" waitingCount="4" stopTime="0.00" timeLoss="191.57" rerouteNo="1" devices="tripinfo_f_0_0.5 routing_f_0_0.5" vType="car" speedFactor="1.09" vaporized=""/>
    <tripinfo id="f_0_0.8" depart="89.00" departLane="-10114#1_1" departPos="5.10" departSpeed="0.00" departDelay="0.38" arrival="326.00" arrivalLane="-10079_1" arrivalPos="42.09" arrivalSpeed="11.21" duration="237.00" routeLength="1206.79" waitingTime="109.00" waitingCount="4" stopTime="0.00" timeLoss="145.06" rerouteNo="1" devices="tripinfo_f_0_0.8 routing_f_0_0.8" vType="car" speedFactor="0.88" vaporized=""/>
    <tripinfo id="f_0_1.8" depart="89.00" departLane="10096#1_1" departPos="5.10" departSpeed="0.00" departDelay="0.38" arrival="367.00" arrivalLane="10063_1" arrivalPos="56.79" arrivalSpeed="10.59" duration="278.00" routeLength="843.38" waitingTime="176.00" waitingCount="9" stopTime="0.00" timeLoss="217.44" rerouteNo="1" devices="tripinfo_f_0_1.8 routing_f_0_1.8" vType="car" speedFactor="0.94" vaporized=""/>
    <tripinfo id="f_0_1.9" depart="100.00" departLane="10096#1_1" departPos="5.10" departSpeed="0.00" departDelay="0.31" arrival="368.00" arrivalLane="10063_1" arrivalPos="56.79" arrivalSpeed="13.59" duration="268.00" routeLength="843.38" waitingTime="163.00" waitingCount="8" stopTime="0.00" timeLoss="219.20" rerouteNo="1" devices="tripinfo_f_0_1.9 routing_f_0_1.9" vType="car" speedFactor="1.16" vaporized=""/>
    <tripinfo id="f_0_0.10" depart="111.00" departLane="-10114#1_1" departPos="5.10" departSpeed="0.00" departDelay="0.23" arrival="388.00" arrivalLane="-10079_1" arrivalPos="42.09" arrivalSpeed="14.06" duration="277.00" routeLength="1206.79" waitingTime="163.00" waitingCount="5" stopTime="0.00" timeLoss="197.47" rerouteNo="1" devices="tripinfo_f_0_0.10 routing_f_0_0.10" vType="car" speedFactor="1.02" vaporized=""/>
    <tripinfo id="f_0_0.12" depart="133.00" departLane="-10114#1_1" departPos="5.10" departSpeed="0.00" departDelay="0.08" arrival="392.00" arrivalLane="-10079_1" arrivalPos="42.09" arrivalSpeed="9.76" duration="259.00" routeLength="1206.79" waitingTime="122.00" waitingCount="6" stopTime="0.00" timeLoss="161.74" rerouteNo="1" devices="tripinfo_f_0_0.12 routing_f_0_0.12" vType="car" speedFactor="0.83" vaporized=""/>
    <tripinfo id="f_0_0.9" depart="100.00" departLane="-10114#1_1" departPos="5.10" departSpeed="0.00" departDelay="0.31" arrival="393.00" arrivalLane="-10079_1" arrivalPos="42.09" arrivalSpeed="12.69" duration="293.00" routeLength="1206.79" waitingTime="171.00" waitingCount="5" stopTime="0.00" timeLoss="207.38" rerouteNo="1" devices="tripinfo_f_0_0.9 routing_f_0_0.9" vType="car" speedFactor="0.94" vaporized=""/>
    <tripinfo id="f_0_0.11" depart="122.00" departLane="-10114#1_1" departPos="5.10" departSpeed="0.00" departDelay="0.15" arrival="395.00" arrivalLane="-10079_1" arrivalPos="42.09" arrivalSpeed="12.88" duration="273.00" routeLength="1206.79" waitingTime="140.00" waitingCount="7" stopTime="0.00" timeLoss="190.76" rerouteNo="1" devices="tripinfo_f_0_0.11 routing_f_0_0.11" vType="car" speedFactor="0.97" vaporized=""/>
    <tripinfo id="f_0_0.13" depart="145.00" departLane="-10114#1_1" departPos="5.10" departSpeed="0.00" departDelay="1.00" arrival="400.00" arrivalLane="-10079_1" arrivalPos="42.09" arrivalSpeed="11.31" duration="255.00" routeLength="1206.79" waitingTime="113.00" waitingCount="6" stopTime="0.00" timeLoss="167.31" rerouteNo="1" devices="tripinfo_f_0_0.13 routing_f_0_0.13" vType="car" speedFactor="0.92" vaporized=""/>
    <tripinfo id="f_1_1.0" depart="303.00" departLane="-10114#1_1" departPos="5.10" departSpeed="0.00" departDelay="3.00" arrival="413.00" arrivalLane="-10079_1" arrivalPos="42.09" arrivalSpeed="13.84" duration="110.00" routeLength="1147.37" waitingTime="29.00" waitingCount="2" stopTime="0.00" timeLoss="51.20" rerouteNo="1" devices="tripinfo_f_1_1.0 routing_f_1_1.0" vType="car" speedFactor="1.14" vaporized=""/>
    <tripinfo id="f_1_1.1" depart="313.00" departLane="-10114#1_1" departPos="5.10" departSpeed="0.00" departDelay="1.92" arrival="415.00" arrivalLane="-10079_1" arrivalPos="42.09" arrivalSpeed="13.76" duration="102.00" routeLength="1147.37" waitingTime="20.00" waitingCount="2" stopTime="0.00" timeLoss="41.65" rerouteNo="1" devices="tripinfo_f_1_1.1 routing_f_1_1.1" vType="car" speedFactor="1.12" vaporized=""/>
    <tripinfo id="f_0_1.10" depart="111.00" departLane="10096#1_1" departPos="5.10" departSpeed="0.00" departDelay="0.23" arrival="445.00" arrivalLane="10063_1" arrivalPos="56.79" arrivalSpeed="13.72" duration="334.00" routeLength="843.38" waitingTime="227.00" waitingCount="11" stopTime="0.00" timeLoss="277.25" rerouteNo="1" devices="tripinfo_f_0_1.10 routing_f_0_1.10" vType="car" speedFactor="1.01" vaporized=""/>
    <tripinfo id="f_0_1.11" depart="122.00" departLane="10096#1_1" departPos="5.10" departSpeed="0.00" departDelay="0.15" arrival="448.00" arrivalLane="10063_1" arrivalPos="56.79" arrivalSpeed="11.04" duration="326.00" routeLength="843.38" waitingTime="205.00" waitingCount="8" stopTime="0.00" timeLoss="261.84" rerouteNo="1" devices="tripinfo_f_0_1.11 routing_f_0_1.11" vType="car" speedFactor="0.89" vaporized=""/>
    <tripinfo id="f_0_0.16" depart="178.00" departLane="-10114#1_1" departPos="5.10" departSpeed="0.00" departDelay="0.77" arrival="472.00" arrivalLane="-10079_1" arrivalPos="42.09" arrivalSpeed="11.62" duration="294.00" routeLength="1206.79" waitingTime="183.00" waitingCount="4" stopTime="0.00" timeLoss="213.95" rerouteNo="1" devices="tripinfo_f_0_0.16 routing_f_0_0.16" vType="car" speedFactor="1.01" vaporized=""/>
    <tripinfo id="f_0_0.17" depart="189.00" departLane="-10114#1_1" departPos="5.10" departSpeed="0.00" departDelay="0.69" arrival="476.00" arrivalLane="-10079_1" arrivalPos="42.09" arrivalSpeed="12.37" duration="287.00" routeLength="1206.79" waitingTime="171.00" waitingCount="4" stopTime="0.00" timeLoss="205.56" rerouteNo="1" devices="tripinfo_f_0_0.17 routing_f_0_0.17" vType="car" speedFactor="0.99" vaporized=""/>
    <tripinfo id="f_0_0.19" depart="211.00" departLane="-10114#1_1" departPos="5.10" departSpeed="0.00" departDelay="0.54" arrival="478.00" arrivalLane="-10079_1" arrivalPos="42.09" arrivalSpeed="14.85" duration="267.00" routeLength="1206.79" waitingTime="137.00" waitingCount="6" stopTime="0.00" timeLoss="193.62" rerouteNo="1" devices="tripinfo_f_0_0.19 routing_f_0_0.19" vType="car" speedFactor="1.10" vaporized=""/>
    <tripinfo id="f_0_0.14" depart="156.00" departLane="-10114#1_1" departPos="5.10" departSpeed="0.00" departDelay="0.92" arrival="480.00" arrivalLane="-10079_1" arrivalPos="42.09" arrivalSpeed="15.65" duration="324.00" routeLength="1206.79" waitingTime="193.00" waitingCount="5" stopTime="0.00" timeLoss="252.24" rerouteNo="1" devices="tripinfo_f_0_0.14 routing_f_0_0.14" vType="car" speedFactor="1.13" vaporized=""/>
    <tripinfo id="f_0_0.15" depart="167.00" departLane="-10114#1_1" departPos="5.10" departSpeed="0.00" departDelay="0.85" arrival="482.00" arrivalLane="-10079_1" arrivalPos="42.09" arrivalSpeed="15.00" duration="315.00" routeLength="1206.79" waitingTime="183.00" waitingCount="4" stopTime="0.00" timeLoss="246.93" rerouteNo="1" devices="tripinfo_f_0_0.15 routing_f_0_0.15" vType="car" speedFactor="1.18" vaporized=""/>
    <tripinfo id="f_0_0.18" depart="200.00" departLane="-10114#1_1" departPos="5.10" departSpeed="0.00" departDelay="0.61" arrival="485.00" arrivalLane="-10079_1" arrivalPos="42.09" arrivalSpeed="13.07" duration="285.00" routeLength="1206.79" waitingTime="152.00" waitingCount="7" stopTime="0.00" timeLoss="202.25" rerouteNo="1" devices="tripinfo_f_0_0.18 routing_f_0_0.18" vType="car" speedFactor="0.97" vaporized=""/>
    <tripinfo id="f_1_1.2" depart="324.00" departLane="-10114#1_1" departPos="5.10" departSpeed="0.00" departDelay="1.85" arrival="491.00" arrivalLane="-10079_1" arrivalPos="42.09" arrivalSpeed="10.84" duration="167.00" routeLength="1147.37" waitingTime="66.00" waitingCount="3" stopTime="0.00" timeLoss="90.12" rerouteNo="1" devices="tripinfo_f_1_1.2 routing_f_1_1.2" vType="car" speedFactor="0.88" vaporized=""/>
    <tripinfo id="f_1_1.3" depart="335.00" departLane="-10114#1_1" departPos="5.10" departSpeed="0.00" departDelay="1.77" arrival="492.00" arrivalLane="-10079_1" arrivalPos="42.09" arrivalSpeed="13.75" duration="157.00" routeLength="1147.37" waitingTime="55.00" waitingCount="4" stopTime="0.00" timeLoss="90.91" rerouteNo="1" devices="tripinfo_f_1_1.3 routing_f_1_1.3" vType="car" speedFactor="1.02" vaporized=""/>
    <tripinfo id="f_1_1.4" depart="346.00" departLane="-10114#1_1" departPos="5.10" departSpeed="0.00" departDelay="1.69" arrival="494.00" arrivalLane="-10079_1" arrivalPos="42.09" arrivalSpeed="12.86" duration="148.00" routeLength="1147.37" waitingTime="39.00" waitingCount="3" stopTime="0.00" timeLoss="83.75" rerouteNo="1" devices="tripinfo_f_1_1.4 routing_f_1_1.4" vType="car" speedFactor="1.06" vaporized=""/>
    <tripinfo id="f_1_1.5" depart="357.00" departLane="-10114#1_1" departPos="5.10" departSpeed="0.00" departDelay="1.62" arrival="499.00" arrivalLane="-10079_1" arrivalPos="42.09" arrivalSpeed="11.94" duration="142.00" routeLength="1147.37" waitingTime="29.00" waitingCount="2" stopTime="0.00" timeLoss="73.11" rerouteNo="1" devices="tripinfo_f_1_1.5 routing_f_1_1.5" vType="car" speedFactor="0.98" vaporized=""/>
    <tripinfo id="f_1_1.6" depart="368.00" departLane="-10114#1_1" departPos="5.10" departSpeed="0.00" departDelay="1.54" arrival="501.00" arrivalLane="-10079_1" arrivalPos="42.09" arrivalSpeed="12.89" duration="133.00" routeLength="1147.37" waitingTime="29.00" waitingCount="2" stopTime="0.00" timeLoss="65.05" rerouteNo="1" devices="tripinfo_f_1_1.6 routing_f_1_1.6" vType="car" speedFactor="1.00" vaporized=""/>
    <tripinfo id="f_1_3.1" depart="312.00" departLane="-10185#1_1" departPos="5.10" departSpeed="0.00" departDelay="0.92" arrival="524.00" arrivalLane="-10071#3_1" arrivalPos="85.18" arrivalSpeed="13.58" duration="212.00" routeLength="1192.30" waitingTime="100.00" waitingCount="5" stopTime="0.00" timeLoss="128.01" rerouteNo="1" devices="tripinfo_f_1_3.1 routing_f_1_3.1" vType="car" speedFactor="0.99" vaporized=""/>
    <tripinfo id="f_1_3.0" depart="300.00" departLane="-10185#1_1" departPos="5.10" departSpeed="0.00" departDelay="0.00" arrival="527.00" arrivalLane="-10071#3_1" arrivalPos="85.18" arrivalSpeed="11.13" duration="227.00" routeLength="1192.30" waitingTime="110.00" waitingCount="4" stopTime="0.00" timeLoss="141.50" rerouteNo="1" devices="tripinfo_f_1_3.0 routing_f_1_3.0" vType="car" speedFactor="0.97" vaporized=""/>
    <tripinfo id="f_0_1.12" depart="133.00" departLane="10096#1_1" departPos="5.10" departSpeed="0.00" departDelay="0.08" arrival="529.00" arrivalLane="10063_1" arrivalPos="56.79" arrivalSpeed="10.63" duration="396.00" routeLength="843.38" waitingTime="289.00" waitingCount="9" stopTime="0.00" timeLoss="330.85" rerouteNo="1" devices="tripinfo_f_0_1.12 routing_f_0_1.12" vType="car" speedFactor="0.87" vaporized=""/>
    <tripinfo id="f_1_3.2" depart="323.00" departLane="-10185#1_1" departPos="5.10" departSpeed="0.00" departDelay="0.85" arrival="530.00" arrivalLane="-10071#3_1" arrivalPos="85.18" arrivalSpeed="12.66" duration="207.00" routeLength="1192.30" waitingTime="90.00" waitingCount="4" stopTime="0.00" timeLoss="116.53" rerouteNo="1" devices="tripinfo_f_1_3.2 routing_f_1_3.2" vType="car" speedFactor="0.91" vaporized=""/>
    <tripinfo id="f_0_1.13" depart="145.00" departLane="10096#1_1" departPos="5.10" departSpeed="0.00" departDelay="1.00" arrival="531.00" arrivalLane="10063_1" arrivalPos="56.79" arrivalSpeed="12.74" duration="386.00" routeLength="843.38" waitingTime="270.00" waitingCount="9" stopTime="0.00" timeLoss="325.77" rerouteNo="1" devices="tripinfo_f_0_1.13 routing_f_0_1.13" vType="car" speedFactor="0.95" vaporized=""/>
    <tripinfo id="f_0_0.21" depart="233.00" departLane="-10114#1_1" departPos="5.10" departSpeed="0.00" departDelay="0.38" arrival="556.00" arrivalLane="-10079_1" arrivalPos="42.09" arrivalSpeed="13.70" duration="323.00" routeLength="1206.79" waitingTime="193.00" waitingCount="7" stopTime="0.00" timeLoss="249.08" rerouteNo="1" devices="tripinfo_f_0_0.21 routing_f_0_0.21" vType="car" speedFactor="1.09" vaporized=""/>
    <tripinfo id="f_0_0.22" depart="244.00" departLane="-10114#1_1" departPos="5.10" departSpeed="0.00" departDelay="0.31" arrival="558.00" arrivalLane="-10079_1" arrivalPos="42.09" arrivalSpeed="12.05" duration="314.00" routeLength="1206.79" waitingTime="183.00" waitingCount="6" stopTime="0.00" timeLoss="236.77" rerouteNo="1" devices="tripinfo_f_0_0.22 routing_f_0_0.22" vType="car" speedFactor="1.04" vaporized=""/>
    <tripinfo id="f_0_0.24" depart="266.00" departLane="-10114#1_1" departPos="5.10" departSpeed="0.00" departDelay="0.15" arrival="561.00" arrivalLane="-10079_1" arrivalPos="42.09" arrivalSpeed="11.92" duration="295.00" routeLength="1206.79" waitingTime="168.00" waitingCount="4" stopTime="0.00" timeLoss="203.78" rerouteNo="1" devices="tripinfo_f_0_0.24 routing_f_0_0.24" vType="car" speedFactor="0.88" vaporized=""/>
    <tripinfo id="f_0_0.20" depart="222.00" departLane="-10114#1_1" departPos="5.10" departSpeed="0.00" departDelay="0.46" arrival="563.00" arrivalLane="-10079_1" arrivalPos="42.09" arrivalSpeed="12.00" duration="341.00" routeLength="1206.79" waitingTime="198.00" waitingCount="8" stopTime="0.00" timeLoss="262.98" rerouteNo="1" devices="tripinfo_f_0_0.20 routing_f_0_0.20" vType="car" speedFactor="1.03" vaporized=""/>
    <tripinfo id="f_0_0.23" depart="255.00" departLane="-10114#1_1" departPos="5.10" departSpeed="0.00" departDelay="0.23" arrival="565.00" arrivalLane="-10079_1" arrivalPos="42.09" arrivalSpeed="12.08" duration="310.00" routeLength="1206.79" waitingTime="170.00" waitingCount="7" stopTime="0.00" timeLoss="229.16" rerouteNo="1" devices="tripinfo_f_0_0.23 routing_f_0_0.23" vType="car" speedFactor="1.00" vaporized=""/>
    <tripinfo id="f_1_1.8" depart="390.00" departLane="-10114#1_1" departPos="5.10" departSpeed="0.00" departDelay="1.38" arrival="569.00" arrivalLane="-10079_1" arrivalPos="42.09" arrivalSpeed="11.77" duration="179.00" routeLength="1147.37" waitingTime="77.00" waitingCount="5" stopTime="0.00" timeLoss="112.59" rerouteNo="1" devices="tripinfo_f_1_1.8 routing_f_1_1.8" vType="car" speedFactor="1.02" vaporized=""/>
    <tripinfo id="f_1_1.7" depart="379.00" departLane="-10114#1_1" departPos="5.10" departSpeed="0.00" departDelay="1.46" arrival="571.00" arrivalLane="-10079_1" arrivalPos="42.09" arrivalSpeed="12.70" duration="192.00" routeLength="1147.37" waitingTime="87.00" waitingCount="5" stopTime="0.00" timeLoss="122.67" rerouteNo="1" devices="tripinfo_f_1_1.7 routing_f_1_1.7" vType="car" speedFactor="0.98" vaporized=""/>
    <tripinfo id="f_1_1.9" depart="401.00" departLane="-10114#1_1" departPos="5.10" departSpeed="0.00" departDelay="1.31" arrival="573.00" arrivalLane="-10079_1" arrivalPos="42.09" arrivalSpeed="11.63" duration="172.00" routeLength="1147.37" waitingTime="54.00" waitingCount="5" stopTime="0.00" timeLoss="98.84" rerouteNo="1" devices="tripinfo_f_1_1.9 routing_f_1_1.9" vType="car" speedFactor="0.92" vaporized=""/>
    <tripinfo id="f_1_1.10" depart="412.00" departLane="-10114#1_1" departPos="5.10" departSpeed="0.00" departDelay="1.23" arrival="578.00" arrivalLane="-10079_1" arrivalPos="42.09" arrivalSpeed="11.89" duration="166.00" routeLength="1147.37" waitingTime="41.00" waitingCount="4" stopTime="0.00" timeLoss="91.73" rerouteNo="1" devices="tripinfo_f_1_1.10 routing_f_1_1.10" vType="car" speedFactor="0.91" vaporized=""/>
    <tripinfo id="f_1_1.11" depart="423.00" departLane="-10114#1_1" departPos="5.10" departSpeed="0.00" departDelay="1.15" arrival="580.00" arrivalLane="-10079_1" arrivalPos="42.09" arrivalSpeed="12.94" duration="157.00" routeLength="1147.37" waitingTime="38.00" waitingCount="3" stopTime="0.00" timeLoss="86.42" rerouteNo="1" devices="tripinfo_f_1_1.11 routing_f_1_1.11" vType="car" speedFactor="0.96" vaporized=""/>
    <tripinfo id="f_1_1.12" depart="434.00" departLane="-10114#1_1" departPos="5.10" departSpeed="0.00" departDelay="1.08" arrival="582.00" arrivalLane="-10079_1" arrivalPos="42.09" arrivalSpeed="13.70" duration="148.00" routeLength="1147.37" waitingTime="32.00" waitingCount="2" stopTime="0.00" timeLoss="84.78" rerouteNo="1" devices="tripinfo_f_1_1.12 routing_f_1_1.12" vType="car" speedFactor="1.07" vaporized=""/>
    <tripinfo id="f_1_3.3" depart="334.00" departLane="-10185#1_1" departPos="5.10" departSpeed="0.00" departDelay="0.77" arrival="600.00" arrivalLane="-10071#3_1" arrivalPos="85.18" arrivalSpeed="13.36" duration="266.00" routeLength="1192.30" waitingTime="146.00" waitingCount="7" stopTime="0.00" timeLoss="180.77" rerouteNo="1" devices="tripinfo_f_1_3.3 routing_f_1_3.3" vType="car" speedFactor="0.97" vaporized=""/>
    <tripinfo id="f_1_3.4" depart="345.00" departLane="-10185#1_1" departPos="5.10" departSpeed="0.00" departDelay="0.69" arrival="602.00" arrivalLane="-10071#3_1" arrivalPos="85.18" arrivalSpeed="13.02" duration="257.00" routeLength="1192.30" waitingTime="127.00" waitingCount="6" stopTime="0.00" timeLoss="172.74" rerouteNo="1" devices="tripinfo_f_1_3.4 routing_f_1_3.4" vType="car" speedFactor="0.98" vaporized=""/>
    <tripinfo id="f_0_1.15" depart="167.00" departLane="10096#1_1" departPos="5.10" departSpeed="0.00" departDelay="0.85" arrival="604.00" arrivalLane="10063_1" arrivalPos="56.79" arrivalSpeed="14.08" duration="437.00" routeLength="843.38" waitingTime="326.00" waitingCount="9" stopTime="0.00" timeLoss="388.03" rerouteNo="1" devices="tripinfo_f_0_1.15 routing_f_0_1.15" vType="car" speedFactor="1.15" vaporized=""/>
    <tripinfo id="f_1_3.5" depart="356.00" departLane="-10185#1_1" departPos="5.10" departSpeed="0.00" departDelay="0.62" arrival="604.00" arrivalLane="-10071#3_1" arrivalPos="85.18" arrivalSpeed="12.92" duration="248.00" routeLength="1267.50" waitingTime="118.00" waitingCount="6" stopTime="0.00" timeLoss="168.44" rerouteNo="1" devices="tripinfo_f_1_3.5 routing_f_1_3.5" vType="car" speedFactor="1.09" vaporized=""/>
    <tripinfo id="f_1_3.8" depart="389.00" departLane="-10185#1_1" departPos="5.10" departSpeed="0.00" departDelay="0.38" arrival="607.00" arrivalLane="-10071#3_1" arrivalPos="85.18" arrivalSpeed="12.21" duration="218.00" routeLength="1192.30" waitingTime="93.00" waitingCount="4" stopTime="0.00" timeLoss="124.95" rerouteNo="1" devices="tripinfo_f_1_3.8 routing_f_1_3.8" vType="car" speedFactor="0.89" vaporized=""/>
    <tripinfo id="f_0_1.14" depart="156.00" departLane="10096#1_1" departPos="5.10" departSpeed="0.00" departDelay="0.92" arrival="608.00" arrivalLane="10063_1" arrivalPos="56.79" arrivalSpeed="12.21" duration="452.00" routeLength="843.38" waitingTime="337.00" waitingCount="9" stopTime="0.00" timeLoss="390.48" rerouteNo="1" devices="tripinfo_f_0_1.14 routing_f_0_1.14" vType="car" speedFactor="0.93" vaporized=""/>
    <tripinfo id="f_1_1.13" depart="446.00" departLane="-10114#1_1" departPos="5.10" departSpeed="0.00" departDelay="2.00" arrival="640.00" arrivalLane="-10079_1" arrivalPos="42.09" arrivalSpeed="11.22" duration="194.00" routeLength="1147.37" waitingTime="101.00" waitingCount="4" stopTime="0.00" timeLoss="123.30" rerouteNo="1" devices="tripinfo_f_1_1.13 routing_f_1_1.13" vType="car" speedFactor="0.96" vaporized=""/>
    <tripinfo id="f_1_3.6" depart="367.00" departLane="-10185#1_1" departPos="5.10" departSpeed="0.00" departDelay="0.54" arrival="641.00" arrivalLane="-10071#3_1" arrivalPos="85.18" arrivalSpeed="11.09" duration="274.00" routeLength="1267.50" waitingTime="142.00" waitingCount="6" stopTime="0.00" timeLoss="185.09" rerouteNo="1" devices="tripinfo_f_1_3.6 routing_f_1_3.6" vType="car" speedFactor="0.97" vaporized=""/>
    <tripinfo id="f_1_1.14" depart="457.00" departLane="-10114#1_1" departPos="5.10" departSpeed="0.00" departDelay="1.92" arrival="642.00" arrivalLane="-10079_1" arrivalPos="42.09" arrivalSpeed="12.36" duration="185.00" routeLength="1147.37" waitingTime="80.00" waitingCount="5" stopTime="0.00" timeLoss="117.57" rerouteNo="1" devices="tripinfo_f_1_1.14 routing_f_1_1.14" vType="car" speedFactor="1.01" vaporized=""/>
    <tripinfo id="f_1_1.15" depart="468.00" departLane="-10114#1_1" departPos="5.10" departSpeed="0.00" departDelay="1.85" arrival="644.00" arrivalLane="-10079_1" arrivalPos="42.09" arrivalSpeed="13.00" duration="176.00" routeLength="1147.37" waitingTime="71.00" waitingCount="5" stopTime="0.00" timeLoss="108.26" rerouteNo="1" devices="tripinfo_f_1_1.15 routing_f_1_1.15" vType="car" speedFactor="1.00" vaporized=""/>
    <tripinfo id="f_1_1.16" depart="479.00" departLane="-10114#1_1" departPos="5.10" departSpeed="0.00" departDelay="1.77" arrival="645.00" arrivalLane="-10079_1" arrivalPos="42.09" arrivalSpeed="13.84" duration="166.00" routeLength="1147.37" waitingTime="58.00" waitingCount="5" stopTime="0.00" timeLoss="105.17" rerouteNo="1" devices="tripinfo_f_1_1.16 routing_f_1_1.16" vType="car" speedFactor="1.10" vaporized=""/>
    <tripinfo id="f_1_1.17" depart="490.00" departLane="-10114#1_1" departPos="5.10" departSpeed="0.00" departDelay="1.69" arrival="647.00" arrivalLane="-10079_1" arrivalPos="42.09" arrivalSpeed="13.87" duration="157.00" routeLength="1147.37" waitingTime="51.00" waitingCount="4" stopTime="0.00" timeLoss="98.52" rerouteNo="1" devices="tripinfo_f_1_1.17 routing_f_1_1.17" vType="car" speedFactor="1.15" vaporized=""/>
    <tripinfo id="f_1_1.18" depart="501.00" departLane="-10114#1_1" departPos="5.10" departSpeed="0.00" departDelay="1.61" arrival="650.00" arrivalLane="-10079_1" arrivalPos="42.09" arrivalSpeed="11.64" duration="149.00" routeLength="1147.37" waitingTime="46.00" waitingCount="3" stopTime="0.00" timeLoss="82.25" rerouteNo="1" devices="tripinfo_f_1_1.18 routing_f_1_1.18" vType="car" speedFactor="1.01" vaporized=""/>
    <tripinfo id="f_0_0.25" depart="277.00" departLane="-10114#1_1" departPos="5.10" departSpeed="0.00" departDelay="0.08" arrival="668.00" arrivalLane="-10079_1" arrivalPos="42.09" arrivalSpeed="9.66" duration="391.00" routeLength="1206.79" waitingTime="251.00" waitingCount="7" stopTime="0.00" timeLoss="296.80" rerouteNo="1" devices="tripinfo_f_0_0.25 routing_f_0_0.25" vType="car" speedFactor="0.85" vaporized=""/>