<?xml version="1.0" encoding="UTF-8"?>

<!-- generated on 2024-10-15 20:53:07 by Eclipse SUMO GUI Version 1.14.1
<configuration xmlns:xsi="http://www.w3.org/2001/XMLSchema-instance" xsi:noNamespaceSchemaLocation="http://sumo.dlr.de/xsd/sumoConfiguration.xsd">

    <input>
        <net-file value="E:\桌面\第三篇github上传\scenario_3-1\osm.net.xml"/>
        <route-files value="E:\桌面\第三篇github上传\scenario_3-1\osm_rl.rou.xml"/>
    </input>

    <output>
        <tripinfo-output value="E:\桌面\第三篇github上传\scenario_3-1\sample.tripinfo.xml"/>
    </output>

    <time>
        <begin value="0"/>
        <end value="7200"/>
    </time>

    <gui_only>
        <gui-settings-file value="E:\桌面\第三篇github上传\scenario_3-1\sample.settings.xml"/>
        <quit-on-end value="true"/>
        <start value="true"/>
    </gui_only>

</configuration>
-->

<tripinfos xmlns:xsi="http://www.w3.org/2001/XMLSchema-instance" xsi:noNamespaceSchemaLocation="http://sumo.dlr.de/xsd/tripinfo_file.xsd">
    <tripinfo id="carflow01.0" depart="0.00" departLane="484462990_0" departPos="5.10" departSpeed="0.00" departDelay="0.00" arrival="49.00" arrivalLane="667354420_0" arrivalPos="254.13" arrivalSpeed="14.46" duration="49.00" routeLength="716.45" waitingTime="0.00" waitingCount="0" stopTime="0.00" timeLoss="8.37" rerouteNo="1" devices="tripinfo_carflow01.0 routing_carflow01.0" vType="car" speedFactor="1.06" vaporized=""/>
    <tripinfo id="carflow06.0" depart="0.00" departLane="583307812#2_0" departPos="5.10" departSpeed="0.00" departDelay="0.00" arrival="49.00" arrivalLane="669301561_0" arrivalPos="218.02" arrivalSpeed="22.02" duration="49.00" routeLength="558.28" waitingTime="0.00" waitingCount="0" stopTime="0.00" timeLoss="18.13" rerouteNo="1" devices="tripinfo_carflow06.0 routing_carflow06.0" vType="car" speedFactor="0.83" vaporized=""/>
    <tripinfo id="carflow13.0" depart="0.00" departLane="-621392371#0_1" departPos="5.10" departSpeed="0.00" departDelay="0.00" arrival="59.00" arrivalLane="-667354421_1" arrivalPos="100.82" arrivalSpeed="16.52" duration="59.00" routeLength="636.57" waitingTime="6.00" waitingCount="1" stopTime="0.00" timeLoss="22.09" rerouteNo="1" devices="tripinfo_carflow13.0 routing_carflow13.0" vType="car" speedFactor="1.05" vaporized=""/>
    <tripinfo id="carflow09.0" depart="6.00" departLane="-621392371#0_0" departPos="5.10" departSpeed="0.00" departDelay="6.00" arrival="60.00" arrivalLane="-583307812#2_0" arrivalPos="70.52" arrivalSpeed="19.39" duration="54.00" routeLength="572.84" waitingTime="3.00" waitingCount="1" stopTime="0.00" timeLoss="21.12" rerouteNo="1" devices="tripinfo_carflow09.0 routing_carflow09.0" vType="car" speedFactor="0.94" vaporized=""/>
    <tripinfo id="carflow13.1" depart="20.00" departLane="-621392371#0_2" departPos="5.10" departSpeed="0.00" departDelay="0.00" arrival="72.00" arrivalLane="-667354421_1" arrivalPos="100.82" arrivalSpeed="14.77" duration="52.00" routeLength="636.57" waitingTime="0.00" waitingCount="0" stopTime="0.00" timeLoss="10.64" rerouteNo="1" devices="tripinfo_carflow13.1 routing_carflow13.1" vType="car" speedFactor="0.94" vaporized=""/>
    <tripinfo id="carflow01.1" depart="18.00" departLane="484462990_0" departPos="5.10" departSpeed="0.00" departDelay="0.09" arrival="76.00" arrivalLane="667354420_0" arrivalPos="254.13" arrivalSpeed="11.21" duration="58.00" routeLength="716.45" waitingTime="0.00" waitingCount="0" stopTime="0.00" timeLoss="8.55" rerouteNo="1" devices="tripinfo_carflow01.1 routing_carflow01.1" vType="car" speedFactor="0.88" vaporized=""/>
    <tripinfo id="carflow14.0" depart="2.00" departLane="706712811_0" departPos="5.10" departSpeed="0.00" departDelay="2.00" arrival="77.00" arrivalLane="-667354421_0" arrivalPos="100.82" arrivalSpeed="16.78" duration="75.00" routeLength="556.53" waitingTime="17.00" waitingCount="3" stopTime="0.00" timeLoss="53.38" rerouteNo="1" devices="tripinfo_carflow14.0 routing_carflow14.0" vType="car" speedFactor="1.12" vaporized=""/>
    <tripinfo id="carflow13.2" depart="40.00" departLane="-621392371#0_2" departPos="5.10" departSpeed="0.00" departDelay="0.00" arrival="79.00" arrivalLane="-667354421_1" arrivalPos="100.82" arrivalSpeed="17.92" duration="39.00" routeLength="636.57" waitingTime="0.00" waitingCount="0" stopTime="0.00" timeLoss="5.83" rerouteNo="1" devices="tripinfo_carflow13.2 routing_carflow13.2" vType="car" speedFactor="1.16" vaporized=""/>
    <tripinfo id="carflow10.0" depart="3.00" departLane="706712811_2" departPos="5.10" departSpeed="0.00" departDelay="3.00" arrival="91.00" arrivalLane="-583307812#2_1" arrivalPos="70.52" arrivalSpeed="15.72" duration="88.00" routeLength="576.45" waitingTime="25.00" waitingCount="2" stopTime="0.00" timeLoss="56.47" rerouteNo="1" devices="tripinfo_carflow10.0 routing_carflow10.0" vType="car" speedFactor="0.86" vaporized=""/>
    <tripinfo id="carflow01.2" depart="36.00" departLane="484462990_0" departPos="5.10" departSpeed="0.00" departDelay="0.18" arrival="92.00" arrivalLane="667354420_0" arrivalPos="254.13" arrivalSpeed="15.02" duration="56.00" routeLength="716.45" waitingTime="0.00" waitingCount="0" stopTime="0.00" timeLoss="9.65" rerouteNo="1" devices="tripinfo_carflow01.2 routing_carflow01.2" vType="car" speedFactor="0.94" vaporized=""/>
    <tripinfo id="carflow05.0" depart="0.00" departLane="484462990_2" departPos="5.10" departSpeed="0.00" departDelay="0.00" arrival="94.00" arrivalLane="669301561_0" arrivalPos="218.02" arrivalSpeed="27.50" duration="94.00" routeLength="658.96" waitingTime="41.00" waitingCount="1" stopTime="0.00" timeLoss="64.67" rerouteNo="1" devices="tripinfo_carflow05.0 routing_carflow05.0" vType="car" speedFactor="1.03" vaporized=""/>
    <tripinfo id="carflow07.0" depart="0.00" departLane="-621392371#0_0" departPos="5.10" departSpeed="0.00" departDelay="0.00" arrival="94.00" arrivalLane="669301561_1" arrivalPos="218.02" arrivalSpeed="26.81" duration="94.00" routeLength="977.44" waitingTime="9.00" waitingCount="2" stopTime="0.00" timeLoss="46.89" rerouteNo="1" devices="tripinfo_carflow07.0 routing_carflow07.0" vType="car" speedFactor="1.05" vaporized=""/>
    <tripinfo id="carflow08.0" depart="3.00" departLane="-621392371#0_0" departPos="5.10" departSpeed="0.00" departDelay="3.00" arrival="98.00" arrivalLane="669301561_1" arrivalPos="218.02" arrivalSpeed="24.43" duration="95.00" routeLength="977.44" waitingTime="3.00" waitingCount="1" stopTime="0.00" timeLoss="39.35" rerouteNo="1" devices="tripinfo_carflow08.0 routing_carflow08.0" vType="car" speedFactor="0.89" vaporized=""/>
    <tripinfo id="carflow13.3" depart="60.00" departLane="-621392371#0_1" departPos="5.10" departSpeed="0.00" departDelay="0.00" arrival="106.00" arrivalLane="-667354421_1" arrivalPos="100.82" arrivalSpeed="16.19" duration="46.00" routeLength="636.57" waitingTime="0.00" waitingCount="0" stopTime="0.00" timeLoss="7.35" rerouteNo="1" devices="tripinfo_carflow13.3 routing_carflow13.3" vType="car" speedFactor="1.01" vaporized=""/>
    <tripinfo id="carflow02.0" depart="0.00" departLane="583307812#2_1" departPos="5.10" departSpeed="0.00" departDelay="0.00" arrival="132.00" arrivalLane="667354420_3" arrivalPos="254.13" arrivalSpeed="15.05" duration="132.00" routeLength="587.63" waitingTime="85.00" waitingCount="1" stopTime="0.00" timeLoss="98.57" rerouteNo="1" devices="tripinfo_carflow02.0 routing_carflow02.0" vType="car" speedFactor="0.94" vaporized=""/>
    <tripinfo id="carflow04.0" depart="0.00" departLane="706712811_2" departPos="5.10" departSpeed="0.00" departDelay="0.00" arrival="134.00" arrivalLane="667354420_3" arrivalPos="254.13" arrivalSpeed="16.92" duration="134.00" routeLength="977.89" waitingTime="51.00" waitingCount="2" stopTime="0.00" timeLoss="88.50" rerouteNo="1" devices="tripinfo_carflow04.0 routing_carflow04.0" vType="car" speedFactor="1.08" vaporized=""/>
    <tripinfo id="carflow01.3" depart="54.00" departLane="484462990_0" departPos="5.10" departSpeed="0.00" departDelay="0.27" arrival="177.00" arrivalLane="667354420_0" arrivalPos="254.13" arrivalSpeed="14.80" duration="123.00" routeLength="716.45" waitingTime="65.00" waitingCount="1" stopTime="0.00" timeLoss="80.40" rerouteNo="1" devices="tripinfo_carflow01.3 routing_carflow01.3" vType="car" speedFactor="1.02" vaporized=""/>
    <tripinfo id="carflow01.4" depart="72.00" departLane="484462990_0" departPos="5.10" departSpeed="0.00" departDelay="0.36" arrival="177.00" arrivalLane="667354420_1" arrivalPos="254.13" arrivalSpeed="13.89" duration="105.00" routeLength="716.45" waitingTime="46.00" waitingCount="1" stopTime="0.00" timeLoss="60.75" rerouteNo="1" devices="tripinfo_carflow01.4 routing_carflow01.4" vType="car" speedFactor="0.97" vaporized=""/>
    <tripinfo id="carflow03.0" depart="0.00" departLane="706712811_0" departPos="5.10" departSpeed="0.00" departDelay="0.00" arrival="178.00" arrivalLane="667354420_2" arrivalPos="254.13" arrivalSpeed="14.04" duration="178.00" routeLength="996.41" waitingTime="89.00" waitingCount="3" stopTime="0.00" timeLoss="128.31" rerouteNo="1" devices="tripinfo_carflow03.0 routing_carflow03.0" vType="car" speedFactor="1.01" vaporized=""/>
    <tripinfo id="carflow11.0" depart="0.00" departLane="484462990_1" departPos="5.10" departSpeed="0.00" departDelay="0.00" arrival="178.00" arrivalLane="-583307812#2_1" arrivalPos="70.52" arrivalSpeed="20.79" duration="178.00" routeLength="780.44" waitingTime="123.00" waitingCount="1" stopTime="0.00" timeLoss="137.96" rerouteNo="1" devices="tripinfo_carflow11.0 routing_carflow11.0" vType="car" speedFactor="1.09" vaporized=""/>
    <tripinfo id="carflow12.0" depart="2.00" departLane="484462990_2" departPos="5.10" departSpeed="0.00" departDelay="2.00" arrival="186.00" arrivalLane="-583307812#2_1" arrivalPos="70.52" arrivalSpeed="18.89" duration="184.00" routeLength="754.19" waitingTime="114.00" waitingCount="2" stopTime="0.00" timeLoss="146.46" rerouteNo="1" devices="tripinfo_carflow12.0 routing_carflow12.0" vType="car" speedFactor="1.03" vaporized=""/>
    <tripinfo id="carflow01.5" depart="90.00" departLane="484462990_0" departPos="5.10" departSpeed="0.00" departDelay="0.45" arrival="187.00" arrivalLane="667354420_0" arrivalPos="254.13" arrivalSpeed="10.85" duration="97.00" routeLength="716.45" waitingTime="24.00" waitingCount="1" stopTime="0.00" timeLoss="44.38" rerouteNo="1" devices="tripinfo_carflow01.5 routing_carflow01.5" vType="car" speedFactor="0.83" vaporized=""/>
    <tripinfo id="carflow01.7" depart="126.00" departLane="484462990_0" departPos="5.10" departSpeed="0.00" departDelay="0.63" arrival="201.00" arrivalLane="667354420_0" arrivalPos="254.13" arrivalSpeed="17.41" duration="75.00" routeLength="716.45" waitingTime="20.00" waitingCount="1" stopTime="0.00" timeLoss="36.33" rerouteNo="1" devices="tripinfo_carflow01.7 routing_carflow01.7" vType="car" speedFactor="1.13" vaporized=""/>
    <tripinfo id="carflow01.8" depart="144.00" departLane="484462990_0" departPos="5.10" departSpeed="0.00" departDelay="0.72" arrival="203.00" arrivalLane="667354420_1" arrivalPos="254.13" arrivalSpeed="16.96" duration="59.00" routeLength="716.45" waitingTime="0.00" waitingCount="0" stopTime="0.00" timeLoss="21.71" rerouteNo="1" devices="tripinfo_carflow01.8 routing_carflow01.8" vType="car" speedFactor="1.18" vaporized=""/>
    <tripinfo id="carflow16.0" depart="6.00" departLane="583307812#2_0" departPos="5.10" departSpeed="0.00" departDelay="6.00" arrival="206.00" arrivalLane="-667354421_2" arrivalPos="100.82" arrivalSpeed="13.27" duration="200.00" routeLength="1617.81" waitingTime="37.00" waitingCount="2" stopTime="0.00" timeLoss="106.64" rerouteNo="1" devices="tripinfo_carflow16.0 routing_carflow16.0" vType="car" speedFactor="0.93" vaporized=""/>
    <tripinfo id="carflow13.4" depart="80.00" departLane="-621392371#0_1" departPos="5.10" departSpeed="0.00" departDelay="0.00" arrival="207.00" arrivalLane="-667354421_1" arrivalPos="100.82" arrivalSpeed="13.88" duration="127.00" routeLength="636.57" waitingTime="68.00" waitingCount="1" stopTime="0.00" timeLoss="83.66" rerouteNo="1" devices="tripinfo_carflow13.4 routing_carflow13.4" vType="car" speedFactor="0.89" vaporized=""/>
    <tripinfo id="carflow01.6" depart="108.00" departLane="484462990_0" departPos="5.10" departSpeed="0.00" departDelay="0.54" arrival="207.00" arrivalLane="667354420_0" arrivalPos="254.13" arrivalSpeed="14.88" duration="99.00" routeLength="716.45" waitingTime="35.00" waitingCount="1" stopTime="0.00" timeLoss="51.94" rerouteNo="1" devices="tripinfo_carflow01.6 routing_carflow01.6" vType="car" speedFactor="0.92" vaporized=""/>
    <tripinfo id="carflow01.9" depart="162.00" departLane="484462990_0" departPos="5.10" departSpeed="0.00" departDelay="0.81" arrival="214.00" arrivalLane="667354420_0" arrivalPos="254.13" arrivalSpeed="15.41" duration="52.00" routeLength="716.45" waitingTime="0.00" waitingCount="0" stopTime="0.00" timeLoss="8.89" rerouteNo="1" devices="tripinfo_carflow01.9 routing_carflow01.9" vType="car" speedFactor="1.01" vaporized=""/>
    <tripinfo id="carflow13.8" depart="160.00" departLane="-621392371#0_1" departPos="5.10" departSpeed="0.00" departDelay="0.00" arrival="216.00" arrivalLane="-667354421_2" arrivalPos="100.82" arrivalSpeed="16.94" duration="56.00" routeLength="636.57" waitingTime="2.00" waitingCount="1" stopTime="0.00" timeLoss="22.21" rerouteNo="1" devices="tripinfo_carflow13.8 routing_carflow13.8" vType="car" speedFactor="1.15" vaporized=""/>
    <tripinfo id="carflow13.7" depart="140.00" departLane="-621392371#0_2" departPos="5.10" departSpeed="0.00" departDelay="0.00" arrival="217.00" arrivalLane="-667354421_1" arrivalPos="100.82" arrivalSpeed="14.55" duration="77.00" routeLength="636.57" waitingTime="21.00" waitingCount="1" stopTime="0.00" timeLoss="35.65" rerouteNo="1" devices="tripinfo_carflow13.7 routing_carflow13.7" vType="car" speedFactor="0.93" vaporized=""/>
    <tripinfo id="carflow13.6" depart="120.00" departLane="-621392371#0_1" departPos="5.10" departSpeed="0.00" departDelay="0.00" arrival="218.00" arrivalLane="-667354421_3" arrivalPos="100.82" arrivalSpeed="13.12" duration="98.00" routeLength="636.57" waitingTime="41.00" waitingCount="1" stopTime="0.00" timeLoss="57.75" rerouteNo="1" devices="tripinfo_carflow13.6 routing_carflow13.6" vType="car" speedFactor="0.95" vaporized=""/>
    <tripinfo id="carflow13.5" depart="100.00" departLane="-621392371#0_2" departPos="5.10" departSpeed="0.00" departDelay="0.00" arrival="219.00" arrivalLane="-667354421_1" arrivalPos="100.82" arrivalSpeed="12.39" duration="119.00" routeLength="636.57" waitingTime="60.00" waitingCount="1" stopTime="0.00" timeLoss="75.23" rerouteNo="1" devices="tripinfo_carflow13.5 routing_carflow13.5" vType="car" speedFactor="0.87" vaporized=""/>
    <tripinfo id="carflow13.9" depart="180.00" departLane="-621392371#0_2" departPos="5.10" departSpeed="0.00" departDelay="0.00" arrival="220.00" arrivalLane="-667354421_2" arrivalPos="100.82" arrivalSpeed="18.16" duration="40.00" routeLength="636.57" waitingTime="0.00" waitingCount="0" stopTime="0.00" timeLoss="6.94" rerouteNo="1" devices="tripinfo_carflow13.9 routing_carflow13.9" vType="car" speedFactor="1.18" vaporized=""/>
    <tripinfo id="carflow01.10" depart="180.00" departLane="484462990_0" departPos="5.10" departSpeed="0.00" departDelay="0.90" arrival="232.00" arrivalLane="667354420_0" arrivalPos="254.13" arrivalSpeed="14.32" duration="52.00" routeLength="716.45" waitingTime="0.00" waitingCount="0" stopTime="0.00" timeLoss="8.22" rerouteNo="1" devices="tripinfo_carflow01.10 routing_carflow01.10" vType="car" speedFactor="0.99" vaporized=""/>
    <tripinfo id="carflow01.11" depart="198.00" departLane="484462990_0" departPos="5.10" departSpeed="0.00" departDelay="0.99" arrival="246.00" arrivalLane="667354420_0" arrivalPos="254.13" arrivalSpeed="17.44" duration="48.00" routeLength="716.45" waitingTime="0.00" waitingCount="0" stopTime="0.00" timeLoss="8.23" rerouteNo="1" devices="tripinfo_carflow01.11 routing_carflow01.11" vType="car" speedFactor="1.10" vaporized=""/>
    <tripinfo id="carflow07.1" depart="180.00" departLane="-621392371#0_0" departPos="5.10" departSpeed="0.00" departDelay="0.00" arrival="248.00" arrivalLane="669301561_0" arrivalPos="218.02" arrivalSpeed="24.04" duration="68.00" routeLength="977.44" waitingTime="0.00" waitingCount="0" stopTime="0.00" timeLoss="17.96" rerouteNo="1" devices="tripinfo_carflow07.1 routing_carflow07.1" vType="car" speedFactor="0.97" vaporized=""/>
    <tripinfo id="carflow13.10" depart="200.00" departLane="-621392371#0_1" departPos="5.10" departSpeed="0.00" departDelay="0.00" arrival="252.00" arrivalLane="-667354421_1" arrivalPos="100.82" arrivalSpeed="12.68" duration="52.00" routeLength="636.57" waitingTime="0.00" waitingCount="0" stopTime="0.00" timeLoss="9.11" rerouteNo="1" devices="tripinfo_carflow13.10 routing_carflow13.10" vType="car" speedFactor="0.90" vaporized=""/>
    <tripinfo id="carflow13.11" depart="220.00" departLane="-621392371#0_2" departPos="5.10" departSpeed="0.00" departDelay="0.00" arrival="268.00" arrivalLane="-667354421_1" arrivalPos="100.82" arrivalSpeed="15.45" duration="48.00" routeLength="636.57" waitingTime="0.00" waitingCount="0" stopTime="0.00" timeLoss="7.24" rerouteNo="1" devices="tripinfo_carflow13.11 routing_carflow13.11" vType="car" speedFactor="0.96" vaporized=""/>
    <tripinfo id="carflow03.1" depart="164.00" departLane="706712811_0" departPos="5.10" departSpeed="0.00" departDelay="0.36" arrival="331.00" arrivalLane="667354420_1" arrivalPos="254.13" arrivalSpeed="19.44" duration="167.00" routeLength="996.41" waitingTime="83.00" waitingCount="4" stopTime="0.00" timeLoss="123.58" rerouteNo="1" devices="tripinfo_carflow03.1 routing_carflow03.1" vType="car" speedFactor="1.17" vaporized=""/>
    <tripinfo id="carflow01.13" depart="233.00" departLane="484462990_0" departPos="5.10" departSpeed="0.00" departDelay="0.17" arrival="332.00" arrivalLane="667354420_1" arrivalPos="254.13" arrivalSpeed="14.74" duration="99.00" routeLength="716.45" waitingTime="40.00" waitingCount="1" stopTime="0.00" timeLoss="59.53" rerouteNo="1" devices="tripinfo_carflow01.13 routing_carflow01.13" vType="car" speedFactor="1.09" vaporized=""/>
    <tripinfo id="carflow01.12" depart="215.00" departLane="484462990_0" departPos="5.10" departSpeed="0.00" departDelay="0.08" arrival="333.00" arrivalLane="667354420_0" arrivalPos="254.13" arrivalSpeed="14.93" duration="118.00" routeLength="716.45" waitingTime="61.00" waitingCount="1" stopTime="0.00" timeLoss="75.82" rerouteNo="1" devices="tripinfo_carflow01.12 routing_carflow01.12" vType="car" speedFactor="1.03" vaporized=""/>
    <tripinfo id="carflow01.14" depart="251.00" departLane="484462990_0" departPos="5.10" departSpeed="0.00" departDelay="0.26" arrival="335.00" arrivalLane="667354420_1" arrivalPos="254.13" arrivalSpeed="16.67" duration="84.00" routeLength="716.45" waitingTime="22.00" waitingCount="2" stopTime="0.00" timeLoss="42.63" rerouteNo="1" devices="tripinfo_carflow01.14 routing_carflow01.14" vType="car" speedFactor="1.04" vaporized=""/>
    <tripinfo id="carflow01.17" depart="305.00" departLane="484462990_0" departPos="5.10" departSpeed="0.00" departDelay="0.53" arrival="369.00" arrivalLane="667354420_1" arrivalPos="254.13" arrivalSpeed="17.86" duration="64.00" routeLength="716.45" waitingTime="4.00" waitingCount="3" stopTime="0.00" timeLoss="26.89" rerouteNo="1" devices="tripinfo_carflow01.17 routing_carflow01.17" vType="car" speedFactor="1.17" vaporized=""/>
    <tripinfo id="carflow13.13" depart="260.00" departLane="-621392371#0_1" departPos="5.10" departSpeed="0.00" departDelay="0.00" arrival="371.00" arrivalLane="-667354421_2" arrivalPos="100.82" arrivalSpeed="14.67" duration="111.00" routeLength="636.57" waitingTime="57.00" waitingCount="1" stopTime="0.00" timeLoss="72.40" rerouteNo="1" devices="tripinfo_carflow13.13 routing_carflow13.13" vType="car" speedFactor="1.00" vaporized=""/>
    <tripinfo id="carflow01.15" depart="269.00" departLane="484462990_0" departPos="5.10" departSpeed="0.00" departDelay="0.35" arrival="373.00" arrivalLane="667354420_0" arrivalPos="254.13" arrivalSpeed="14.56" duration="104.00" routeLength="716.45" waitingTime="41.00" waitingCount="1" stopTime="0.00" timeLoss="55.43" rerouteNo="1" devices="tripinfo_carflow01.15 routing_carflow01.15" vType="car" speedFactor="0.90" vaporized=""/>
    <tripinfo id="carflow01.18" depart="323.00" departLane="484462990_0" departPos="5.10" departSpeed="0.00" departDelay="0.62" arrival="374.00" arrivalLane="667354420_1" arrivalPos="254.13" arrivalSpeed="16.68" duration="51.00" routeLength="716.45" waitingTime="0.00" waitingCount="0" stopTime="0.00" timeLoss="11.17" rerouteNo="1" devices="tripinfo_carflow01.18 routing_carflow01.18" vType="car" speedFactor="1.10" vaporized=""/>
    <tripinfo id="carflow15.0" depart="3.00" departLane="583307812#2_0" departPos="5.10" departSpeed="0.00" departDelay="3.00" arrival="375.00" arrivalLane="-667354421_0" arrivalPos="100.82" arrivalSpeed="13.86" duration="372.00" routeLength="1638.82" waitingTime="219.00" waitingCount="5" stopTime="0.00" timeLoss="287.61" rerouteNo="1" devices="tripinfo_carflow15.0 routing_carflow15.0" vType="car" speedFactor="0.99" vaporized=""/>
    <tripinfo id="carflow13.12" depart="240.00" departLane="-621392371#0_1" departPos="5.10" departSpeed="0.00" departDelay="0.00" arrival="375.00" arrivalLane="-667354421_1" arrivalPos="100.82" arrivalSpeed="16.25" duration="135.00" routeLength="636.57" waitingTime="81.00" waitingCount="1" stopTime="0.00" timeLoss="97.28" rerouteNo="1" devices="tripinfo_carflow13.12 routing_carflow13.12" vType="car" speedFactor="1.04" vaporized=""/>
    <tripinfo id="carflow13.15" depart="300.00" departLane="-621392371#0_2" departPos="5.10" departSpeed="0.00" departDelay="0.00" arrival="376.00" arrivalLane="-667354421_1" arrivalPos="100.82" arrivalSpeed="11.58" duration="76.00" routeLength="636.57" waitingTime="17.00" waitingCount="1" stopTime="0.00" timeLoss="30.95" rerouteNo="1" devices="tripinfo_carflow13.15 routing_carflow13.15" vType="car" speedFactor="0.85" vaporized=""/>
    <tripinfo id="carflow13.16" depart="320.00" departLane="-621392371#0_1" departPos="5.10" departSpeed="0.00" departDelay="0.00" arrival="376.00" arrivalLane="-667354421_3" arrivalPos="100.82" arrivalSpeed="13.55" duration="56.00" routeLength="636.57" waitingTime="0.00" waitingCount="0" stopTime="0.00" timeLoss="18.25" rerouteNo="1" devices="tripinfo_carflow13.16 routing_carflow13.16" vType="car" speedFactor="1.02" vaporized=""/>
    <tripinfo id="carflow13.14" depart="280.00" departLane="-621392371#0_2" departPos="5.10" departSpeed="0.00" departDelay="0.00" arrival="378.00" arrivalLane="-667354421_1" arrivalPos="100.82" arrivalSpeed="13.22" duration="98.00" routeLength="636.57" waitingTime="35.00" waitingCount="1" stopTime="0.00" timeLoss="54.09" rerouteNo="1" devices="tripinfo_carflow13.14 routing_carflow13.14" vType="car" speedFactor="0.88" vaporized=""/>
    <tripinfo id="carflow01.16" depart="287.00" departLane="484462990_0" departPos="5.10" departSpeed="0.00" departDelay="0.44" arrival="379.00" arrivalLane="667354420_0" arrivalPos="254.13" arrivalSpeed="12.82" duration="92.00" routeLength="716.45" waitingTime="23.00" waitingCount="1" stopTime="0.00" timeLoss="41.25" rerouteNo="1" devices="tripinfo_carflow01.16 routing_carflow01.16" vType="car" speedFactor="0.85" vaporized=""/>
    <tripinfo id="carflow13.17" depart="340.00" departLane="-621392371#0_2" departPos="5.10" departSpeed="0.00" departDelay="0.00" arrival="387.00" arrivalLane="-667354421_1" arrivalPos="100.82" arrivalSpeed="15.82" duration="47.00" routeLength="636.57" waitingTime="0.00" waitingCount="0" stopTime="0.00" timeLoss="7.79" rerouteNo="1" devices="tripinfo_carflow13.17 routing_carflow13.17" vType="car" speedFactor="1.00" vaporized=""/>
    <tripinfo id="carflow01.19" depart="341.00" departLane="484462990_0" departPos="5.10" departSpeed="0.00" departDelay="0.71" arrival="398.00" arrivalLane="667354420_0" arrivalPos="254.13" arrivalSpeed="13.15" duration="57.00" routeLength="716.45" waitingTime="0.00" waitingCount="0" stopTime="0.00" timeLoss="9.13" rerouteNo="1" devices="tripinfo_carflow01.19 routing_carflow01.19" vType="car" speedFactor="0.90" vaporized=""/>
    <tripinfo id="carflow13.18" depart="360.00" departLane="-621392371#0_1" departPos="5.10" departSpeed="0.00" departDelay="0.00" arrival="403.00" arrivalLane="-667354421_1" arrivalPos="100.82" arrivalSpeed="15.56" duration="43.00" routeLength="636.57" waitingTime="0.00" waitingCount="0" stopTime="0.00" timeLoss="7.68" rerouteNo="1" devices="tripinfo_carflow13.18 routing_carflow13.18" vType="car" speedFactor="1.08" vaporized=""/>
    <tripinfo id="carflow05.1" depart="180.00" departLane="484462990_2" departPos="5.10" departSpeed="0.00" departDelay="0.00" arrival="404.00" arrivalLane="669301561_0" arrivalPos="218.02" arrivalSpeed="25.86" duration="224.00" routeLength="658.96" waitingTime="168.00" waitingCount="2" stopTime="0.00" timeLoss="195.23" rerouteNo="1" devices="tripinfo_carflow05.1 routing_carflow05.1" vType="car" speedFactor="1.02" vaporized=""/>
    <tripinfo id="carflow01.20" depart="359.00" departLane="484462990_0" departPos="5.10" departSpeed="0.00" departDelay="0.80" arrival="406.00" arrivalLane="667354420_0" arrivalPos="254.13" arrivalSpeed="16.32" duration="47.00" routeLength="716.45" waitingTime="0.00" waitingCount="0" stopTime="0.00" timeLoss="8.67" rerouteNo="1" devices="tripinfo_carflow01.20 routing_carflow01.20" vType="car" speedFactor="1.14" vaporized=""/>
    <tripinfo id="carflow13.19" depart="380.00" departLane="-621392371#0_1" departPos="5.10" departSpeed="0.00" departDelay="0.00" arrival="425.00" arrivalLane="-667354421_1" arrivalPos="100.82" arrivalSpeed="14.28" duration="45.00" routeLength="636.57" waitingTime="0.00" waitingCount="0" stopTime="0.00" timeLoss="6.97" rerouteNo="1" devices="tripinfo_carflow13.19 routing_carflow13.19" vType="car" speedFactor="1.02" vaporized=""/>
    <tripinfo id="carflow07.2" depart="360.00" departLane="-621392371#0_0" departPos="5.10" departSpeed="0.00" departDelay="0.00" arrival="427.00" arrivalLane="669301561_0" arrivalPos="218.02" arrivalSpeed="24.66" duration="67.00" routeLength="977.44" waitingTime="0.00" waitingCount="0" stopTime="0.00" timeLoss="17.16" rerouteNo="1" devices="tripinfo_carflow07.2 routing_carflow07.2" vType="car" speedFactor="0.97" vaporized=""/>
    <tripinfo id="carflow04.1" depart="258.00" departLane="706712811_2" departPos="5.10" departSpeed="0.00" departDelay="0.86" arrival="443.00" arrivalLane="667354420_3" arrivalPos="254.13" arrivalSpeed="17.18" duration="185.00" routeLength="977.89" waitingTime="103.00" waitingCount="2" stopTime="0.00" timeLoss="139.54" rerouteNo="1" devices="tripinfo_carflow04.1 routing_carflow04.1" vType="car" speedFactor="1.09" vaporized=""/>
    <tripinfo id="carflow01.21" depart="377.00" departLane="484462990_0" departPos="5.10" departSpeed="0.00" departDelay="0.89" arrival="487.00" arrivalLane="667354420_0" arrivalPos="254.13" arrivalSpeed="18.59" duration="110.00" routeLength="716.45" waitingTime="57.00" waitingCount="1" stopTime="0.00" timeLoss="71.38" rerouteNo="1" devices="tripinfo_carflow01.21 routing_carflow01.21" vType="car" speedFactor="1.12" vaporized=""/>
    <tripinfo id="carflow03.2" depart="328.00" departLane="706712811_0" departPos="5.10" departSpeed="0.00" departDelay="0.73" arrival="490.00" arrivalLane="667354420_2" arrivalPos="254.13" arrivalSpeed="16.10" duration="162.00" routeLength="996.41" waitingTime="74.00" waitingCount="3" stopTime="0.00" timeLoss="111.75" rerouteNo="1" devices="tripinfo_carflow03.2 routing_carflow03.2" vType="car" speedFactor="1.00" vaporized=""/>
    <tripinfo id="carflow01.22" depart="395.00" departLane="484462990_0" departPos="5.10" departSpeed="0.00" departDelay="0.98" arrival="492.00" arrivalLane="667354420_1" arrivalPos="254.13" arrivalSpeed="15.98" duration="97.00" routeLength="716.45" waitingTime="33.00" waitingCount="1" stopTime="0.00" timeLoss="52.86" rerouteNo="1" devices="tripinfo_carflow01.22 routing_carflow01.22" vType="car" speedFactor="0.99" vaporized=""/>
    <tripinfo id="carflow01.23" depart="412.00" departLane="484462990_0" departPos="5.10" departSpeed="0.00" departDelay="0.07" arrival="494.00" arrivalLane="667354420_0" arrivalPos="254.13" arrivalSpeed="14.22" duration="82.00" routeLength="716.45" waitingTime="16.00" waitingCount="1" stopTime="0.00" timeLoss="33.11" rerouteNo="1" devices="tripinfo_carflow01.23 routing_carflow01.23" vType="car" speedFactor="0.88" vaporized=""/>
    <tripinfo id="carflow01.25" depart="448.00" departLane="484462990_0" departPos="5.10" departSpeed="0.00" departDelay="0.25" arrival="533.00" arrivalLane="667354420_0" arrivalPos="254.13" arrivalSpeed="16.81" duration="85.00" routeLength="716.45" waitingTime="27.00" waitingCount="1" stopTime="0.00" timeLoss="42.12" rerouteNo="1" devices="tripinfo_carflow01.25 routing_carflow01.25" vType="car" speedFactor="1.02" vaporized=""/>
    <tripinfo id="carflow01.27" depart="484.00" departLane="484462990_0" departPos="5.10" departSpeed="0.00" departDelay="0.43" arrival="535.00" arrivalLane="667354420_1" arrivalPos="254.13" arrivalSpeed="17.02" duration="51.00" routeLength="716.45" waitingTime="0.00" waitingCount="0" stopTime="0.00" timeLoss="9.99" rerouteNo="1" devices="tripinfo_carflow01.27 routing_carflow01.27" vType="car" speedFactor="1.06" vaporized=""/>